 NUFEB Simulation

     50 atoms 
     2 atom types 
     50 bacilli 

  0.0e-4   1.00e-04  xlo xhi 
  0.0e-4   1.00e-04  ylo yhi 
  0.0e-4   1.00e-05  zlo zhi 

 Atoms 

1 1 1 370 6.22e-05 1.73e-05 1.e-06 1  
2 1 1 370 8.02e-05 1.20e-05 1.e-06 1  
3 1 1 370 3.31e-05 6.64e-05 1.e-06 1  
4 1 1 370 2.25e-05 9.66e-05 1.e-06 1  
5 1 1 370 3.93e-05 3.62e-06 1.e-06 1  
6 1 1 370 6.89e-05 7.93e-05 1.e-06 1  
7 1 1 370 3.33e-05 4.89e-05 1.e-06 1  
8 1 1 370 4.46e-05 9.96e-05 1.e-06 1  
9 1 1 370 7.89e-05 6.93e-05 1.e-06 1  
10 1 1 370 6.84e-05 1.77e-05 1.e-06 1  
11 1 1 370 5.12e-05 8.94e-05 1.e-06 1  
12 1 1 370 3.81e-05 5.85e-05 1.e-06 1  
13 1 1 370 8.64e-05 1.91e-05 1.e-06 1  
14 1 1 370 7.57e-05 5.64e-06 1.e-06 1  
15 1 1 370 5.43e-05 5.67e-05 1.e-06 1  
16 1 1 370 1.94e-05 5.68e-05 1.e-06 1  
17 1 1 370 3.60e-05 4.36e-06 1.e-06 1  
18 1 1 370 5.22e-05 3.5e-05 1.e-06 1  
19 1 1 370 1.93e-05 3.24e-07 1.e-06 1  
20 1 1 370 4.95e-05 6.84e-05 1.e-06 1  
21 2 1 236 6.03e-05 8.68e-05 1.e-06 1  
22 2 1 236 8.33e-05 5.e-05 1.e-06 1  
23 2 1 236 2.25e-05 5.54e-05 1.e-06 1  
24 2 1 236 3.43e-05 5.11e-05 1.e-06 1  
25 2 1 236 1.44e-05 5.07e-05 1.e-06 1  
26 2 1 236 6.55e-05 2.89e-05 1.e-06 1  
27 2 1 236 9.49e-05 9.46e-05 1.e-06 1  
28 2 1 236 2.26e-05 2.85e-05 1.e-06 1  
29 2 1 236 9.65e-05 3.07e-05 1.e-06 1  
30 2 1 236 7.36e-05 6.14e-05 1.e-06 1  
31 2 1 236 3.13e-05 1.65e-05 1.e-06 1  
32 2 1 236 2.49e-05 1.96e-05 1.e-06 1  
33 2 1 236 8.14e-05 3.33e-05 1.e-06 1  
34 2 1 236 9.37e-06 6.69e-05 1.e-06 1  
35 2 1 236 5.84e-05 3.11e-05 1.e-06 1  
36 2 1 236 3.34e-05 4.37e-05 1.e-06 1  
37 2 1 236 1.77e-05 8.32e-05 1.e-06 1  
38 2 1 236 8.68e-05 2.51e-05 1.e-06 1  
39 2 1 236 3.96e-05 2.67e-05 1.e-06 1  
40 2 1 236 9.33e-06 6.3e-05 1.e-06 1  
41 2 1 236 1.18e-05 3.90e-05 1.e-06 1  
42 2 1 236 8.15e-05 3.71e-05 1.e-06 1  
43 2 1 236 6.05e-06 4.84e-06 1.e-06 1  
44 2 1 236 7.91e-05 4.68e-05 1.e-06 1  
45 2 1 236 4.48e-05 4.37e-05 1.e-06 1  
46 2 1 236 6.38e-05 8.04e-05 1.e-06 1  
47 2 1 236 3.23e-05 5.88e-05 1.e-06 1  
48 2 1 236 4.78e-05 3.58e-05 1.e-06 1  
49 2 1 236 5.50e-05 5.16e-05 1.e-06 1  
50 2 1 236 2.72e-05 8.09e-05 1.e-06 1  

 Bacilli 

1 0 0 9.2e-23 0 0 0 8.9e-07 5.4e-07 0 1e-06  
2 0 0 9.2e-23 0 0 0 5.4e-07 2.2e-06 0 1e-06  
3 0 0 9.2e-23 0 0 0 8.9e-07 1.4e-06 0 1e-06  
4 0 0 9.2e-23 0 0 0 1.4e-06 1.1e-06 0 1e-06  
5 0 0 9.2e-23 0 0 0 1.0e-06 1.1e-06 0 1e-06  
6 0 0 9.2e-23 0 0 0 1.2e-06 4.1e-07 0 1e-06  
7 0 0 9.2e-23 0 0 0 1.4e-06 6.1e-07 0 1e-06  
8 0 0 9.2e-23 0 0 0 1.6e-06 1.6e-06 0 1e-06  
9 0 0 9.2e-23 0 0 0 1.3e-06 1.4e-06 0 1e-06  
10 0 0 9.2e-23 0 0 0 1.4e-06 4.6e-08 0 1e-06  
11 0 0 9.2e-23 0 0 0 7.2e-07 1.1e-07 0 1e-06  
12 0 0 9.2e-23 0 0 0 7.4e-08 1.7e-06 0 1e-06  
13 0 0 9.2e-23 0 0 0 2.3e-06 2.1e-07 0 1e-06  
14 0 0 9.2e-23 0 0 0 8.6e-07 7.5e-07 0 1e-06  
15 0 0 9.2e-23 0 0 0 1.6e-06 6.4e-08 0 1e-06  
16 0 0 9.2e-23 0 0 0 1.7e-06 2.2e-08 0 1e-06  
17 0 0 9.2e-23 0 0 0 3.6e-07 1.4e-06 0 1e-06  
18 0 0 9.2e-23 0 0 0 1.3e-06 2.4e-07 0 1e-06  
19 0 0 9.2e-23 0 0 0 3.2e-07 1.0e-06 0 1e-06  
20 0 0 9.2e-23 0 0 0 1.1e-06 1.7e-06 0 1e-06  
21 0 0 9.2e-23 0 0 0 1.2e-06 3.9e-07 0 7.3e-07  
22 0 0 9.2e-23 0 0 0 1.1e-06 6.3e-07 0 7.3e-07  
23 0 0 9.2e-23 0 0 0 1.2e-06 5.4e-07 0 7.3e-07  
24 0 0 9.2e-23 0 0 0 1.3e-06 4.5e-07 0 7.3e-07  
25 0 0 9.2e-23 0 0 0 1.5e-07 1.3e-06 0 7.3e-07  
26 0 0 9.2e-23 0 0 0 2.9e-07 1.1e-06 0 7.3e-07  
27 0 0 9.2e-23 0 0 0 1.0e-06 4.9e-07 0 7.3e-07  
28 0 0 9.2e-23 0 0 0 1.1e-06 8.1e-07 0 7.3e-07  
29 0 0 9.2e-23 0 0 0 1.2e-06 5.8e-07 0 7.3e-07  
30 0 0 9.2e-23 0 0 0 8.4e-07 5.5e-07 0 7.3e-07  
31 0 0 9.2e-23 0 0 0 1.2e-06 2.6e-08 0 7.3e-07  
32 0 0 9.2e-23 0 0 0 1.1e-06 4.2e-07 0 7.3e-07  
33 0 0 9.2e-23 0 0 0 9.5e-07 5.8e-07 0 7.3e-07  
34 0 0 9.2e-23 0 0 0 1.1e-06 2.4e-07 0 7.3e-07  
35 0 0 9.2e-23 0 0 0 1.0e-06 3.5e-07 0 7.3e-07  
36 0 0 9.2e-23 0 0 0 1.1e-07 1.1e-06 0 7.3e-07  
37 0 0 9.2e-23 0 0 0 3.8e-07 9.0e-07 0 7.3e-07  
38 0 0 9.2e-23 0 0 0 7.1e-07 1.0e-06 0 7.3e-07  
39 0 0 9.2e-23 0 0 0 3.4e-07 9.8e-07 0 7.3e-07  
40 0 0 9.2e-23 0 0 0 7.9e-07 8.4e-07 0 7.3e-07  
41 0 0 9.2e-23 0 0 0 7.6e-07 7.6e-07 0 7.3e-07  
42 0 0 9.2e-23 0 0 0 5.1e-07 1.1e-06 0 7.3e-07  
43 0 0 9.2e-23 0 0 0 9.6e-07 7.1e-07 0 7.3e-07  
44 0 0 9.2e-23 0 0 0 1.1e-07 1.3e-06 0 7.3e-07  
45 0 0 9.2e-23 0 0 0 1.1e-06 6.2e-07 0 7.3e-07  
46 0 0 9.2e-23 0 0 0 1.1e-07 1.3e-06 0 7.3e-07  
47 0 0 9.2e-23 0 0 0 3.5e-07 9.6e-07 0 7.3e-07  
48 0 0 9.2e-23 0 0 0 9.7e-07 7.3e-07 0 7.3e-07  
49 0 0 9.2e-23 0 0 0 3.1e-07 1.2e-06 0 7.3e-07  
50 0 0 9.2e-23 0 0 0 1.2e-06 6.8e-08 0 7.3e-07  
