 NUFEB Simulation

     68 atoms 
     2 atom types 
     4 nutrients 

  0.0e-4   1.00e-04  xlo xhi 
  0.0e-4   1.00e-04  ylo yhi 
  0.0e-4   1.00e-05  zlo zhi 

 Atoms 

     1 1 1.65e-06  370 7.79e-05 8.97e-06 4.73e-06 1.65e-06 
     2 1 1.85e-06  370 3.88e-05 2.28e-05 3.60e-06 1.85e-06 
     3 1 1.37e-06  370 7.74e-05 7.50e-05 6.61e-06 1.37e-06 
     4 1 1.58e-06  370 3.64e-05 9.14e-05 8.30e-06 1.58e-06 
     5 2 1.03e-06  236 4.35e-05 8.13e-05 6.16e-06 1.03e-06 
     6 2 8.97e-07  236 4.70e-05 7.75e-05 2.65e-06 8.97e-07 
     7 2 9.38e-07  236 2.21e-05 5.48e-05 4.35e-06 9.38e-07 
     8 2 1.03e-06  236 3.33e-05 4.74e-05 2.53e-06 1.03e-06 
     9 2 8.95e-07  236 3.28e-05 8.29e-05 4.00e-06 8.95e-07 
     10 2 9.85e-07  236 7.29e-05 7.39e-05 3.57e-06 9.85e-07 
     11 2 8.89e-07  236 3.91e-05 1.19e-05 4.50e-06 8.89e-07 
     12 2 8.89e-07  236 2.59e-05 6.99e-05 1.01e-06 8.89e-07 
     13 2 9.43e-07  236 7.46e-05 4.24e-05 4.02e-06 9.43e-07 
     14 2 1.02e-06  236 7.85e-05 4.92e-05 3.71e-06 1.02e-06 
     15 2 1.00e-06  236 5.93e-06 3.45e-05 2.78e-06 1.00e-06 
     16 2 1.01e-06  236 7.70e-05 4.75e-05 1.76e-06 1.01e-06 
     17 2 9.82e-07  236 2.21e-05 9.48e-05 5.51e-06 9.82e-07 
     18 2 1.01e-06  236 5.55e-05 8.57e-06 3.55e-06 1.01e-06 
     19 2 9.09e-07  236 1.64e-05 5.68e-05 5.52e-06 9.09e-07 
     20 2 8.97e-07  236 7.93e-05 7.94e-05 8.99e-06 8.97e-07 
     21 2 9.68e-07  236 3.42e-05 5.94e-05 5.71e-06 9.68e-07 
     22 2 9.73e-07  236 4.68e-05 2.89e-05 3.51e-06 9.73e-07 
     23 2 1.01e-06  236 6.65e-06 4.25e-05 6.93e-06 1.01e-06 
     24 2 9.52e-07  236 7.46e-05 8.40e-05 2.05e-06 9.52e-07 
     25 2 9.82e-07  236 5.83e-05 4.26e-05 1.10e-06 9.82e-07 
     26 2 9.48e-07  236 8.81e-05 6.12e-05 7.51e-06 9.48e-07 
     27 2 8.83e-07  236 4.15e-05 7.13e-05 4.70e-06 8.83e-07 
     28 2 9.77e-07  236 8.75e-05 6.56e-05 3.80e-06 9.77e-07 
     29 2 9.29e-07  236 1.45e-05 4.27e-05 5.24e-06 9.29e-07 
     30 2 9.16e-07  236 1.39e-05 1.04e-05 5.85e-06 9.16e-07 
     31 2 9.15e-07  236 2.57e-05 6.31e-05 2.21e-06 9.15e-07 
     32 2 1.03e-06  236 8.95e-05 1.56e-05 2.90e-06 1.03e-06 
     33 2 9.22e-07  236 7.14e-05 7.32e-05 4.12e-06 9.22e-07 
     34 2 1.02e-06  236 3.62e-05 8.46e-05 7.36e-06 1.02e-06 
     35 2 9.04e-07  236 2.05e-05 7.43e-05 7.89e-06 9.04e-07 
     36 2 8.91e-07  236 4.73e-05 6.60e-05 6.75e-06 8.91e-07 
     37 2 1.01e-06  236 5.54e-05 7.09e-05 1.54e-06 1.01e-06 
     38 2 9.97e-07  236 8.55e-05 2.92e-06 4.06e-06 9.97e-07 
     39 2 9.06e-07  236 8.99e-05 2.33e-05 8.98e-06 9.06e-07 
     40 2 1.02e-06  236 1.57e-05 7.83e-05 8.70e-06 1.02e-06 
     41 2 9.68e-07  236 3.44e-05 7.36e-06 3.64e-06 9.68e-07 
     42 2 8.81e-07  236 5.04e-05 3.03e-05 8.90e-06 8.81e-07 
     43 2 8.83e-07  236 2.54e-05 3.81e-05 5.85e-06 8.83e-07 
     44 2 8.83e-07  236 5.54e-05 5.28e-05 1.59e-06 8.83e-07 
     45 2 9.64e-07  236 3.95e-05 1.04e-05 8.75e-06 9.64e-07 
     46 2 9.45e-07  236 5.32e-05 4.34e-05 2.71e-06 9.45e-07 
     47 2 9.30e-07  236 3.34e-05 2.68e-05 4.66e-06 9.30e-07 
     48 2 1.03e-06  236 5.67e-05 5.71e-05 5.92e-06 1.03e-06 
     49 2 9.51e-07  236 4.07e-05 5.11e-05 2.41e-06 9.51e-07 
     50 2 9.34e-07  236 8.16e-05 7.09e-05 8.29e-06 9.34e-07 
     51 2 9.85e-07  236 4.69e-05 4.75e-06 8.79e-06 9.85e-07 
     52 2 9.26e-07  236 5.14e-05 6.91e-05 1.89e-06 9.26e-07 
     53 2 9.41e-07  236 6.51e-05 5.02e-05 5.60e-06 9.41e-07 
     54 2 9.64e-07  236 7.30e-05 8.26e-05 3.23e-06 9.64e-07 
     55 2 9.24e-07  236 1.25e-05 7.86e-05 6.60e-06 9.24e-07 
     56 2 9.21e-07  236 8.91e-05 5.42e-05 2.40e-06 9.21e-07 
     57 2 9.83e-07  236 2.09e-05 7.02e-05 6.96e-06 9.83e-07 
     58 2 9.06e-07  236 9.14e-05 3.91e-05 7.72e-06 9.06e-07 
     59 2 9.53e-07  236 8.56e-05 1.20e-05 6.20e-06 9.53e-07 
     60 2 9.90e-07  236 8.49e-05 2.32e-05 7.36e-06 9.90e-07 
     61 2 1.04e-06  236 9.61e-05 7.72e-05 7.11e-06 1.04e-06 
     62 2 8.95e-07  236 5.77e-05 6.51e-05 5.28e-06 8.95e-07 
     63 2 9.23e-07  236 2.43e-05 8.70e-06 3.90e-06 9.23e-07 
     64 2 8.87e-07  236 2.31e-05 8.57e-05 8.48e-06 8.87e-07 
     65 2 8.91e-07  236 8.14e-05 9.00e-05 3.79e-06 8.91e-07 
     66 2 1.02e-06  236 5.83e-05 8.80e-05 6.25e-06 1.02e-06 
     67 2 8.93e-07  236 2.78e-05 9.55e-06 1.07e-06 8.93e-07 
     68 2 9.77e-07  236 6.76e-05 9.78e-05 6.77e-06 9.77e-07 

 Nutrients 

     1 sub g nn nn nn 1.00e-01 1.00e-01 
     2 o2 l nn nn nn 9.00e-03 9.00e-03 
     3 suc l nn nn nn 3.42e-20 3.42e-20 
     4 co2 l nn nn nn 4.40e+01 4.40e+01 

 Type Name 

     1 cyano  
     2 ecw  

 Diffusion Coeffs 

     sub 0 
     o2 2.3e-09 
     suc 5.2e-10 
     co2 1.9e-09 

 Growth Rate 

     cyano 1.67e-05 
     ecw 0.00027 

 Ks 

     cyano 0.00035 0.0002 0.01 0.000138 
     ecw 0 0.001 3.6 0.05 

 Yield 

     cyano 0.55 
     ecw 0.43 

 Maintenance 

     cyano 0 
     ecw 9.5e-07 

 Decay 

     cyano 0 
     ecw 2e-05 



