 NUFEB Simulation

     178 atoms 
     2 atom types 
     4 nutrients 

  0.0e-4   1.00e-04  xlo xhi 
  0.0e-4   1.00e-04  ylo yhi 
  0.0e-4   1.00e-05  zlo zhi 

 Atoms 

     1 1 1.92e-06  370 2.70e-05 9.59e-05 2.44e-06 1.92e-06 
     2 1 1.67e-06  370 8.20e-05 4.52e-05 6.98e-06 1.67e-06 
     3 1 1.62e-06  370 4.45e-05 3.10e-05 5.60e-06 1.62e-06 
     4 1 1.45e-06  370 2.14e-06 4.69e-05 3.59e-06 1.45e-06 
     5 1 1.50e-06  370 8.35e-05 4.35e-05 4.93e-06 1.50e-06 
     6 1 1.37e-06  370 3.48e-05 3.32e-05 4.97e-06 1.37e-06 
     7 1 1.77e-06  370 3.95e-05 6.44e-05 6.64e-06 1.77e-06 
     8 1 1.58e-06  370 2.24e-05 8.31e-05 6.95e-06 1.58e-06 
     9 1 1.64e-06  370 8.61e-05 8.29e-05 4.69e-06 1.64e-06 
     10 1 1.67e-06  370 8.84e-06 1.04e-05 4.37e-06 1.67e-06 
     11 1 1.57e-06  370 9.54e-05 4.97e-05 7.50e-06 1.57e-06 
     12 1 1.69e-06  370 9.51e-05 7.64e-05 7.25e-06 1.69e-06 
     13 1 1.45e-06  370 9.84e-06 5.95e-05 5.90e-06 1.45e-06 
     14 1 1.93e-06  370 7.65e-05 6.40e-05 6.17e-06 1.93e-06 
     15 1 1.70e-06  370 9.12e-05 7.74e-06 5.42e-06 1.70e-06 
     16 1 1.52e-06  370 3.93e-05 4.05e-05 3.82e-06 1.52e-06 
     17 1 1.40e-06  370 6.66e-05 9.43e-05 5.07e-06 1.40e-06 
     18 1 1.50e-06  370 2.31e-05 1.60e-05 6.51e-06 1.50e-06 
     19 1 1.72e-06  370 3.01e-05 2.63e-05 5.29e-06 1.72e-06 
     20 1 1.89e-06  370 2.88e-06 3.63e-05 5.94e-06 1.89e-06 
     21 1 1.78e-06  370 8.56e-05 2.58e-05 7.41e-06 1.78e-06 
     22 1 1.80e-06  370 8.92e-05 5.70e-05 2.72e-06 1.80e-06 
     23 1 1.50e-06  370 6.20e-05 3.47e-05 4.96e-06 1.50e-06 
     24 1 1.76e-06  370 7.76e-05 9.69e-05 2.34e-06 1.76e-06 
     25 1 1.38e-06  370 9.17e-05 7.39e-05 3.47e-06 1.38e-06 
     26 1 1.76e-06  370 9.07e-05 3.38e-05 5.52e-06 1.76e-06 
     27 1 1.41e-06  370 8.55e-05 6.77e-05 3.15e-06 1.41e-06 
     28 1 1.59e-06  370 5.32e-06 9.58e-05 6.19e-06 1.59e-06 
     29 1 1.60e-06  370 3.33e-05 2.63e-05 4.36e-06 1.60e-06 
     30 1 1.83e-06  370 9.59e-05 5.37e-05 4.77e-06 1.83e-06 
     31 1 1.40e-06  370 1.71e-05 6.36e-05 2.71e-06 1.40e-06 
     32 1 1.37e-06  370 2.83e-05 1.10e-05 6.84e-06 1.37e-06 
     33 1 1.42e-06  370 7.26e-05 4.83e-06 3.52e-06 1.42e-06 
     34 1 1.51e-06  370 9.39e-05 3.95e-05 4.65e-06 1.51e-06 
     35 1 1.90e-06  370 9.06e-05 8.81e-05 6.08e-06 1.90e-06 
     36 1 1.66e-06  370 2.69e-05 8.12e-05 5.51e-06 1.66e-06 
     37 1 1.57e-06  370 4.88e-05 7.83e-05 5.11e-06 1.57e-06 
     38 1 1.59e-06  370 7.66e-05 1.28e-05 2.52e-06 1.59e-06 
     39 1 1.42e-06  370 9.74e-05 5.69e-05 8.02e-06 1.42e-06 
     40 1 1.53e-06  370 6.96e-05 8.06e-05 7.80e-06 1.53e-06 
     41 1 1.64e-06  370 4.98e-05 3.16e-05 6.24e-06 1.64e-06 
     42 1 1.47e-06  370 6.30e-05 9.74e-05 5.54e-06 1.47e-06 
     43 1 1.94e-06  370 4.94e-05 3.65e-05 6.94e-06 1.94e-06 
     44 1 1.80e-06  370 7.02e-05 3.87e-05 2.09e-06 1.80e-06 
     45 1 1.81e-06  370 9.45e-05 7.57e-05 5.21e-06 1.81e-06 
     46 1 1.54e-06  370 5.11e-05 7.91e-06 2.17e-06 1.54e-06 
     47 1 1.84e-06  370 1.79e-05 2.41e-05 2.72e-06 1.84e-06 
     48 1 1.61e-06  370 2.16e-05 3.48e-05 6.32e-06 1.61e-06 
     49 1 1.44e-06  370 1.44e-05 5.67e-05 6.98e-06 1.44e-06 
     50 1 1.48e-06  370 7.28e-05 4.85e-05 7.26e-06 1.48e-06 
     51 1 1.86e-06  370 1.70e-05 3.75e-05 5.03e-06 1.86e-06 
     52 1 1.46e-06  370 9.78e-05 8.45e-05 2.22e-06 1.46e-06 
     53 1 1.52e-06  370 8.45e-05 6.70e-06 7.76e-06 1.52e-06 
     54 1 1.63e-06  370 7.21e-05 6.66e-05 2.81e-06 1.63e-06 
     55 1 1.83e-06  370 5.46e-05 5.80e-05 5.52e-06 1.83e-06 
     56 1 1.50e-06  370 5.22e-05 3.82e-05 1.60e-06 1.50e-06 
     57 1 1.72e-06  370 6.11e-05 4.83e-05 6.46e-06 1.72e-06 
     58 1 1.94e-06  370 6.77e-05 4.24e-05 2.58e-06 1.94e-06 
     59 1 1.77e-06  370 7.89e-05 6.35e-05 7.17e-06 1.77e-06 
     60 1 1.41e-06  370 7.99e-05 2.59e-05 5.51e-06 1.41e-06 
     61 1 1.79e-06  370 8.53e-05 1.66e-05 3.97e-06 1.79e-06 
     62 1 1.63e-06  370 1.69e-05 2.95e-06 2.95e-06 1.63e-06 
     63 1 1.76e-06  370 5.62e-05 8.45e-05 5.46e-06 1.76e-06 
     64 1 1.70e-06  370 8.09e-05 1.55e-05 7.75e-06 1.70e-06 
     65 1 1.41e-06  370 2.88e-05 3.87e-05 7.47e-06 1.41e-06 
     66 1 1.61e-06  370 1.14e-05 5.34e-06 4.40e-06 1.61e-06 
     67 1 1.51e-06  370 5.63e-05 4.03e-05 3.05e-06 1.51e-06 
     68 1 1.40e-06  370 7.31e-05 2.92e-05 2.08e-06 1.40e-06 
     69 1 1.52e-06  370 7.05e-06 2.67e-05 6.41e-06 1.52e-06 
     70 1 1.75e-06  370 9.29e-06 8.51e-05 3.11e-06 1.75e-06 
     71 1 1.43e-06  370 7.34e-05 9.81e-05 6.74e-06 1.43e-06 
     72 1 1.74e-06  370 5.59e-05 4.39e-05 3.96e-06 1.74e-06 
     73 1 1.59e-06  370 8.75e-05 1.18e-05 6.93e-06 1.59e-06 
     74 1 1.60e-06  370 3.48e-05 4.21e-05 2.54e-06 1.60e-06 
     75 1 1.57e-06  370 3.10e-05 4.58e-05 2.68e-06 1.57e-06 
     76 1 1.52e-06  370 2.50e-05 9.73e-05 5.70e-06 1.52e-06 
     77 1 1.81e-06  370 7.63e-05 5.28e-05 6.00e-06 1.81e-06 
     78 1 1.42e-06  370 5.65e-06 9.22e-05 2.37e-06 1.42e-06 
     79 1 1.38e-06  370 1.08e-05 3.25e-05 7.23e-06 1.38e-06 
     80 1 1.63e-06  370 7.51e-05 3.17e-05 1.98e-06 1.63e-06 
     81 1 1.52e-06  370 6.54e-05 9.64e-05 2.80e-06 1.52e-06 
     82 1 1.67e-06  370 9.19e-05 3.26e-05 8.05e-06 1.67e-06 
     83 1 1.43e-06  370 5.96e-06 6.39e-05 7.08e-06 1.43e-06 
     84 1 1.62e-06  370 6.97e-05 2.66e-05 2.87e-06 1.62e-06 
     85 1 1.60e-06  370 1.38e-05 7.64e-05 3.59e-06 1.60e-06 
     86 1 1.51e-06  370 5.60e-05 8.62e-05 4.39e-06 1.51e-06 
     87 1 1.89e-06  370 1.92e-05 4.06e-05 3.18e-06 1.89e-06 
     88 1 1.60e-06  370 1.38e-05 8.02e-06 2.87e-06 1.60e-06 
     89 1 1.56e-06  370 5.19e-05 9.39e-05 6.39e-06 1.56e-06 
     90 1 1.84e-06  370 5.83e-05 5.89e-05 7.86e-06 1.84e-06 
     91 1 1.64e-06  370 8.24e-05 1.71e-05 5.47e-06 1.64e-06 
     92 2 8.83e-07  236 1.17e-05 9.46e-05 1.34e-06 8.83e-07 
     93 2 1.01e-06  236 7.42e-05 6.05e-05 8.33e-06 1.01e-06 
     94 2 9.65e-07  236 1.69e-05 1.47e-05 8.80e-06 9.65e-07 
     95 2 9.65e-07  236 4.36e-05 9.87e-05 3.25e-06 9.65e-07 
     96 2 9.87e-07  236 8.75e-05 3.69e-05 4.43e-06 9.87e-07 
     97 2 9.15e-07  236 4.55e-06 7.44e-05 7.12e-06 9.15e-07 
     98 2 9.04e-07  236 3.03e-05 4.20e-05 3.30e-06 9.04e-07 
     99 2 1.03e-06  236 3.36e-05 7.47e-05 1.85e-06 1.03e-06 
     100 2 8.80e-07  236 2.22e-05 9.62e-05 8.91e-06 8.80e-07 
     101 2 9.06e-07  236 5.51e-05 5.82e-05 8.43e-06 9.06e-07 
     102 2 9.14e-07  236 9.25e-06 1.29e-05 2.55e-06 9.14e-07 
     103 2 9.86e-07  236 7.12e-05 9.37e-05 1.46e-06 9.86e-07 
     104 2 8.91e-07  236 6.46e-05 5.55e-05 6.93e-06 8.91e-07 
     105 2 1.03e-06  236 8.03e-05 6.11e-05 4.29e-06 1.03e-06 
     106 2 9.79e-07  236 3.22e-05 3.74e-05 4.10e-06 9.79e-07 
     107 2 1.02e-06  236 4.90e-05 3.69e-05 8.80e-06 1.02e-06 
     108 2 1.04e-06  236 4.70e-05 1.97e-05 8.19e-06 1.04e-06 
     109 2 9.45e-07  236 3.83e-06 4.97e-05 4.91e-06 9.45e-07 
     110 2 9.67e-07  236 3.52e-05 5.02e-05 6.45e-06 9.67e-07 
     111 2 9.03e-07  236 8.34e-06 3.42e-05 6.79e-06 9.03e-07 
     112 2 1.03e-06  236 9.40e-05 8.85e-05 3.66e-06 1.03e-06 
     113 2 9.84e-07  236 7.62e-05 3.48e-05 3.75e-06 9.84e-07 
     114 2 9.02e-07  236 3.24e-05 5.40e-05 4.33e-06 9.02e-07 
     115 2 1.02e-06  236 2.67e-05 3.16e-05 7.68e-06 1.02e-06 
     116 2 9.60e-07  236 1.41e-05 5.67e-05 1.00e-06 9.60e-07 
     117 2 9.10e-07  236 5.53e-05 8.80e-05 1.62e-06 9.10e-07 
     118 2 9.42e-07  236 4.36e-05 3.12e-05 6.07e-06 9.42e-07 
     119 2 9.84e-07  236 1.93e-05 8.82e-05 4.56e-06 9.84e-07 
     120 2 9.37e-07  236 9.84e-05 5.08e-05 2.57e-06 9.37e-07 
     121 2 1.01e-06  236 4.36e-05 3.66e-05 2.26e-06 1.01e-06 
     122 2 8.87e-07  236 1.32e-05 6.24e-05 6.06e-06 8.87e-07 
     123 2 1.00e-06  236 1.43e-05 6.03e-05 7.07e-06 1.00e-06 
     124 2 9.91e-07  236 6.37e-06 1.11e-05 3.04e-06 9.91e-07 
     125 2 1.00e-06  236 3.78e-05 7.41e-05 4.31e-06 1.00e-06 
     126 2 1.00e-06  236 7.08e-05 9.80e-05 6.08e-06 1.00e-06 
     127 2 9.07e-07  236 5.38e-05 1.60e-05 7.68e-06 9.07e-07 
     128 2 1.03e-06  236 3.17e-05 8.03e-05 5.20e-06 1.03e-06 
     129 2 9.43e-07  236 2.45e-05 5.44e-05 8.76e-06 9.43e-07 
     130 2 1.02e-06  236 7.85e-05 1.96e-05 3.45e-06 1.02e-06 
     131 2 1.03e-06  236 3.67e-05 6.38e-05 6.94e-06 1.03e-06 
     132 2 9.13e-07  236 8.81e-05 1.92e-05 4.49e-06 9.13e-07 
     133 2 9.18e-07  236 3.54e-05 1.47e-05 8.68e-06 9.18e-07 
     134 2 9.58e-07  236 1.61e-05 7.92e-05 7.05e-06 9.58e-07 
     135 2 9.50e-07  236 3.93e-05 7.93e-05 7.94e-06 9.50e-07 
     136 2 1.02e-06  236 9.70e-05 3.66e-05 7.16e-06 1.02e-06 
     137 2 9.38e-07  236 4.94e-06 8.38e-06 2.25e-06 9.38e-07 
     138 2 8.86e-07  236 6.61e-05 8.86e-05 6.97e-06 8.86e-07 
     139 2 9.30e-07  236 9.20e-06 9.04e-05 2.34e-06 9.30e-07 
     140 2 8.92e-07  236 2.45e-05 1.77e-05 1.45e-06 8.92e-07 
     141 2 9.36e-07  236 1.49e-05 6.23e-05 8.76e-06 9.36e-07 
     142 2 9.63e-07  236 7.60e-05 4.97e-05 1.61e-06 9.63e-07 
     143 2 8.89e-07  236 9.27e-05 5.84e-06 1.93e-06 8.89e-07 
     144 2 1.04e-06  236 2.94e-05 3.71e-05 3.49e-06 1.04e-06 
     145 2 9.46e-07  236 9.20e-05 3.74e-05 6.18e-06 9.46e-07 
     146 2 1.00e-06  236 2.71e-05 2.46e-05 3.99e-06 1.00e-06 
     147 2 8.89e-07  236 1.68e-05 1.31e-05 6.94e-06 8.89e-07 
     148 2 8.85e-07  236 3.99e-05 6.69e-06 7.54e-06 8.85e-07 
     149 2 9.10e-07  236 9.85e-05 7.11e-05 1.98e-06 9.10e-07 
     150 2 9.45e-07  236 3.84e-05 1.95e-05 6.57e-06 9.45e-07 
     151 2 8.91e-07  236 9.12e-05 7.60e-06 7.70e-06 8.91e-07 
     152 2 9.09e-07  236 7.98e-05 1.47e-05 3.54e-06 9.09e-07 
     153 2 9.41e-07  236 1.01e-05 2.14e-05 3.48e-06 9.41e-07 
     154 2 9.98e-07  236 3.01e-05 6.46e-05 3.40e-06 9.98e-07 
     155 2 9.73e-07  236 4.79e-06 4.83e-05 4.65e-06 9.73e-07 
     156 2 9.33e-07  236 6.33e-05 5.72e-05 8.90e-06 9.33e-07 
     157 2 9.06e-07  236 8.27e-05 7.00e-05 1.96e-06 9.06e-07 
     158 2 9.38e-07  236 6.45e-05 7.47e-05 7.86e-06 9.38e-07 
     159 2 1.03e-06  236 1.37e-06 7.09e-05 8.88e-06 1.03e-06 
     160 2 9.87e-07  236 5.46e-05 6.55e-05 8.43e-06 9.87e-07 
     161 2 9.78e-07  236 6.45e-05 3.46e-05 1.09e-06 9.78e-07 
     162 2 1.02e-06  236 2.55e-05 9.33e-05 2.29e-06 1.02e-06 
     163 2 8.82e-07  236 1.61e-05 3.70e-05 6.47e-06 8.82e-07 
     164 2 9.63e-07  236 4.98e-05 7.59e-05 6.05e-06 9.63e-07 
     165 2 9.55e-07  236 1.03e-05 6.88e-05 1.62e-06 9.55e-07 
     166 2 8.91e-07  236 9.73e-06 5.50e-05 7.71e-06 8.91e-07 
     167 2 1.01e-06  236 9.60e-05 8.60e-05 5.00e-06 1.01e-06 
     168 2 9.08e-07  236 2.80e-06 3.45e-05 3.67e-06 9.08e-07 
     169 2 1.01e-06  236 8.62e-06 7.00e-05 5.75e-06 1.01e-06 
     170 2 9.87e-07  236 6.86e-05 4.63e-05 8.54e-06 9.87e-07 
     171 2 9.62e-07  236 1.81e-05 9.86e-05 3.85e-06 9.62e-07 
     172 2 8.91e-07  236 9.15e-05 8.68e-05 7.08e-06 8.91e-07 
     173 2 9.59e-07  236 3.61e-05 8.96e-05 3.86e-06 9.59e-07 
     174 2 9.68e-07  236 7.43e-05 5.91e-06 4.17e-06 9.68e-07 
     175 2 8.90e-07  236 9.08e-05 9.20e-05 6.39e-06 8.90e-07 
     176 2 1.01e-06  236 9.75e-05 3.61e-05 8.61e-06 1.01e-06 
     177 2 1.02e-06  236 5.74e-05 4.50e-05 2.47e-06 1.02e-06 
     178 2 1.03e-06  236 7.29e-05 1.16e-05 2.22e-06 1.03e-06 

 Nutrients 

     1 sub g nn nn nn 1.00e-01 1.00e-01 
     2 o2 l nn nn nn 9.00e-03 9.00e-03 
     3 suc l nn nn nn 3.42e-20 3.42e-20 
     4 co2 l nn nn nn 4.40e+01 4.40e+01 

 Type Name 

     1 cyano  
     2 ecw  

 Diffusion Coeffs 

     sub 0 
     o2 2.3e-09 
     suc 5.2e-10 
     co2 1.9e-09 

 Growth Rate 

     cyano 1.67e-05 
     ecw 0.00027 

 Ks 

     cyano 0.00035 0.0002 0.01 0.000138 
     ecw 0 0.001 3.6 0.05 

 Yield 

     cyano 0.55 
     ecw 0.43 

 Maintenance 

     cyano 0 
     ecw 9.5e-07 

 Decay 

     cyano 0 
     ecw 2e-05 



