<?xml version="1.0"?>
<VTKFile type="UnstructuredGrid" version="0.1" byte_order="LittleEndian" header_type="UInt32" compressor="vtkZLibDataCompressor">
  <UnstructuredGrid>
    <Piece NumberOfPoints="97" NumberOfCells="97">
      <PointData>
        <DataArray type="Int32" Name="id" format="ascii" RangeMin="1" RangeMax="97">
          75 50 19 59 97 42
          49 15 22 44 3 93
          40 1 78 24 7 54
          20 62 61 84 77 32
          51 85 60 81 67 18
          92 82 14 26 57 12
          89 64 37 90 34 46
          86 79 35 2 69 48
          13 39 72 30 23 96
          95 43 56 73 6 38
          33 88 87 91 17 47
          41 58 10 66 11 45
          36 68 55 25 80 5
          74 4 9 76 52 21
          29 65 28 8 94 83
          63 53 27 70 16 71
          31
        </DataArray>
        <DataArray type="Int32" Name="type" format="ascii" RangeMin="1" RangeMax="2">
          2 1 1 1 1 1
          1 1 1 1 1 1
          1 1 2 1 1 1
          1 2 2 1 2 1
          1 1 1 1 2 1
          1 1 1 1 1 1
          1 2 1 1 1 1
          1 2 1 1 2 1
          1 1 2 1 1 1
          1 1 1 2 1 1
          1 1 1 1 1 1
          1 1 1 2 1 1
          1 2 1 1 1 1
          2 1 1 2 1 1
          1 2 1 1 1 1
          2 1 1 2 1 2
          1
        </DataArray>
        <DataArray type="Float64" Name="diameter" format="ascii" RangeMin="7.7626905245e-07" RangeMax="1.9689429103e-06">
          8.8707045428e-07 1.8140822228e-06 1.8583281234e-06 1.4917892772e-06 1.6439093417e-06 1.5928526972e-06
          1.8251437064e-06 1.8804510744e-06 1.5375453129e-06 1.6813445118e-06 1.6260371275e-06 1.6729394473e-06
          1.5535011605e-06 1.8915125597e-06 9.4131589795e-07 1.7477133685e-06 1.6702830271e-06 1.880451084e-06
          1.5751294706e-06 1.0158160865e-06 1.0218606427e-06 1.735747866e-06 9.7076801215e-07 1.6174951982e-06
          1.5917974961e-06 1.6991468726e-06 1.836205172e-06 1.7541155518e-06 1.0304649334e-06 1.6924059785e-06
          1.5736983973e-06 1.7365838918e-06 1.7422544965e-06 1.6717566005e-06 1.6126017608e-06 1.7587748397e-06
          1.5473272273e-06 1.0096858664e-06 1.5751294518e-06 1.7002156367e-06 1.9468199307e-06 1.5788299853e-06
          1.7357478445e-06 7.7626905245e-07 1.6702830182e-06 1.8472666462e-06 8.652471072e-07 1.8804510719e-06
          1.9025740369e-06 1.6773833239e-06 9.9761545726e-07 1.5661461502e-06 1.9578814171e-06 1.4897139844e-06
          1.645205711e-06 1.6702830289e-06 1.913635508e-06 9.2822775986e-07 1.5751294543e-06 1.6003788516e-06
          1.902574036e-06 1.7183997715e-06 1.7357478461e-06 1.6811664887e-06 1.7255904171e-06 1.9468199439e-06
          1.5957158795e-06 1.7587748451e-06 1.6481600794e-06 1.0209964518e-06 1.9468199399e-06 1.5817912205e-06
          1.7477133787e-06 9.3314639304e-07 1.6167995397e-06 1.7587748419e-06 1.7816670947e-06 1.5928526945e-06
          9.045376994e-07 1.6924059859e-06 1.8362051789e-06 1.0206594099e-06 1.6592215582e-06 1.5264838258e-06
          1.9468199212e-06 9.5279249039e-07 1.5917974874e-06 1.670283017e-06 1.6729394518e-06 1.7541155444e-06
          1.0019663523e-06 1.5535011643e-06 1.9578814159e-06 9.3062172296e-07 1.6924059885e-06 1.0105676614e-06
          1.9689429103e-06
        </DataArray>
      </PointData>
      <CellData>
      </CellData>
      <Points>
        <DataArray type="Float32" Name="Points" NumberOfComponents="3" format="ascii" RangeMin="9.888468375e-06" RangeMax="0.00013124058025">
          1.9700000848e-05 2.3399999918e-05 9.4000000672e-07 1.3099999705e-05 1.6300000425e-05 2.140000106e-06
          4.9499999477e-06 8.130000424e-06 2.6800000796e-06 4.0770661144e-05 1.5489584257e-05 2.6039283512e-06
          4.125272244e-05 1.5511477613e-05 4.0880709093e-06 1.7200000002e-05 5.7000002016e-06 6.1699997786e-06
          3.1799998396e-05 8.6800000645e-06 6.1800001276e-06 1.7700000399e-06 1.0099999599e-05 6.6200000219e-06
          1.4600000213e-05 8.9300001491e-06 7.4399999903e-06 2.5600000299e-05 1.6800000594e-05 7.3599999268e-06
          4.6400000429e-05 1.1600000107e-05 7.9499995991e-06 1.3942549231e-05 3.8766880607e-05 1.6701711729e-06
          1.4439511688e-05 4.0182036173e-05 2.2489366529e-06 2.940000013e-05 4.0200000512e-05 4.269999863e-06
          4.5600001613e-05 4.110000009e-05 4.6999998631e-06 3.9300000935e-05 3.8400001358e-05 5.3700000535e-06
          1.7500000467e-05 4.059999992e-05 5.6099997892e-06 3.1399998988e-05 4.9300000683e-05 5.5499999689e-06
          4.8779588724e-06 2.948900692e-05 7.2148163781e-06 5.0200001169e-06 3.3100001019e-05 7.1700001172e-06
          3.7000001612e-05 4.0200000512e-05 8.1600001067e-06 5.3854623729e-06 2.9512055335e-05 8.7772923507e-06
          3.6599998566e-05 7.0100002631e-05 2.2199999421e-06 3.5305260099e-05 7.2202914453e-05 2.1147450298e-06
          3.7715699364e-06 5.7288718381e-05 3.2451466723e-06 3.5294488043e-05 7.1377762652e-05 3.5386046875e-06
          1.5699999494e-05 6.7499997385e-05 4.4899998102e-06 4.2918727559e-06 5.7312347053e-05 4.8470283218e-06
          4.380000064e-06 7.3299997894e-05 5.2400000641e-06 9.6699995993e-06 5.4100000852e-05 5.8999999055e-06
          2.3163485821e-05 6.5354855906e-05 5.9562521528e-06 9.2804593805e-06 6.7132452386e-05 5.9260910348e-06
          6.6390389293e-06 6.2528037233e-05 6.6083507591e-06 2.3650873118e-05 6.4005384047e-05 6.6852257987e-06
          9.8016216725e-06 6.8616522185e-05 6.5330395955e-06 5.1299998631e-06 7.0499998401e-05 7.000000096e-06
          7.2845750765e-06 6.3421597588e-05 7.8231742009e-06 4.9300000683e-05 8.4400002379e-05 1.2299999526e-06
          3.855795876e-05 8.458900993e-05 1.7548162532e-06 5.2871300795e-06 7.8751450928e-05 2.8338602078e-06
          8.8599999799e-06 8.3999999333e-05 2.7000000955e-06 5.7949850998e-06 8.0197620264e-05 3.4253112062e-06
          3.906546408e-05 8.4612052888e-05 3.3172923395e-06 7.1072563514e-06 8.6621112132e-05 3.180804697e-06
          4.3299998651e-05 7.6700001955e-05 3.8200000745e-06 3.9200000174e-05 9.1599998996e-05 3.7600000269e-06
          7.8320481407e-06 8.6787935288e-05 4.7228168114e-06 4.5900000259e-05 7.8800003394e-05 5.4100000852e-06
          2.5200000891e-05 8.9499997557e-05 5.2700002016e-06 4.7374622227e-05 7.6749602158e-05 6.3576749199e-06
          2.9200000426e-05 7.4299998232e-05 6.6399998104e-06 4.770513624e-05 9.5493407571e-05 6.741145171e-06
          1.2200000128e-05 7.5299998571e-05 7.3599999268e-06 4.7988974984e-05 7.7600001532e-05 7.513816854e-06
          4.7694611567e-05 9.4687238743e-05 8.1322505139e-06 5.6400000176e-05 2.2800000806e-05 2.2599999738e-06
          6.3699997554e-05 1.4199999896e-05 2.7000000955e-06 5.0800001191e-05 1.3300000319e-05 3.5800001115e-06
          8.0157959019e-05 1.8889008061e-05 4.3448162614e-06 9.3605252914e-05 8.0225190686e-06 4.9754253268e-06
          5.8500001614e-05 5.5499999689e-06 5.2099999266e-06 9.3036869657e-05 1.6150712327e-05 5.5635596254e-06
          8.0665464338e-05 1.8912056476e-05 5.907292234e-06 9.3594491773e-05 7.1981735346e-06 6.3978900471e-06
          7.0900001447e-05 1.2700000298e-05 6.1400000959e-06 5.4799998907e-05 1.7500000467e-05 6.2300000536e-06
          9.3545226264e-05 1.7598305931e-05 6.1555906541e-06 8.7400003395e-05 3.549999974e-06 6.6600000537e-06
          9.3100003141e-05 2.3900000087e-05 7.4300000961e-06 5.3200001275e-05 4.8599998991e-05 2.4500000109e-06
          5.7500001276e-05 3.8499998482e-05 3.2999998894e-06 7.2800001362e-05 4.9700000091e-05 5.4199999795e-06
          8.859999798e-05 2.5900000765e-05 8.0899999375e-06 7.4299998232e-05 7.3700000939e-05 1.3400000398e-06
          5.2251300076e-05 5.3388706874e-05 2.1143159756e-06 9.2800000857e-05 5.4000000091e-05 2.6299999263e-06
          5.277217133e-05 5.3412361012e-05 3.7179436276e-06 7.4399998994e-05 7.1700000262e-05 3.7800000428e-06
          7.9199999163e-05 7.0299996878e-05 4.3400000322e-06 7.6600001194e-05 5.6500000937e-05 4.8699998842e-06
          8.7699998403e-05 5.0400001783e-05 5.9399999373e-06 7.5800002378e-05 5.7500001276e-05 5.6499998209e-06
          7.9899997218e-05 6.6799999331e-05 7.1700001172e-06 5.0700000429e-05 7.5800002378e-05 1.5699999949e-06
          7.4600000517e-05 8.5500003479e-05 1.8099999579e-06 9.7500000265e-05 8.7799999164e-05 3.0000001061e-06
          8.2351572928e-05 8.9088716777e-05 4.0151467147e-06 7.1800001024e-05 9.4000002719e-05 4.5400001909e-06
          7.0942551247e-05 8.9366876637e-05 5.4301713135e-06 8.2871869381e-05 8.9112349087e-05 5.6170283642e-06
          8.6400003056e-05 7.8099998063e-05 6.4199998633e-06 7.1439513704e-05 9.0782035841e-05 6.0089369072e-06
          7.5700001616e-05 9.449999925e-05 7.2100001489e-06 5.4000000091e-05 9.560000035e-05 7.1099998422e-06
          9.1599998996e-05 8.3600003563e-05 7.7900003816e-06 9.2700000096e-05 8.4599996626e-05 8.3699997049e-06
          6.41000006e-05 8.9399996796e-05 8.170000001e-06
        </DataArray>
      </Points>
      <Cells>
        <DataArray type="Int64" Name="connectivity" format="ascii" RangeMin="0" RangeMax="96">
          0 1 2 3 4 5
          6 7 8 9 10 11
          12 13 14 15 16 17
          18 19 20 21 22 23
          24 25 26 27 28 29
          30 31 32 33 34 35
          36 37 38 39 40 41
          42 43 44 45 46 47
          48 49 50 51 52 53
          54 55 56 57 58 59
          60 61 62 63 64 65
          66 67 68 69 70 71
          72 73 74 75 76 77
          78 79 80 81 82 83
          84 85 86 87 88 89
          90 91 92 93 94 95
          96
        </DataArray>
        <DataArray type="Int64" Name="offsets" format="ascii" RangeMin="1" RangeMax="97">
          1 2 3 4 5 6
          7 8 9 10 11 12
          13 14 15 16 17 18
          19 20 21 22 23 24
          25 26 27 28 29 30
          31 32 33 34 35 36
          37 38 39 40 41 42
          43 44 45 46 47 48
          49 50 51 52 53 54
          55 56 57 58 59 60
          61 62 63 64 65 66
          67 68 69 70 71 72
          73 74 75 76 77 78
          79 80 81 82 83 84
          85 86 87 88 89 90
          91 92 93 94 95 96
          97
        </DataArray>
        <DataArray type="UInt8" Name="types" format="ascii" RangeMin="1" RangeMax="1">
          1 1 1 1 1 1
          1 1 1 1 1 1
          1 1 1 1 1 1
          1 1 1 1 1 1
          1 1 1 1 1 1
          1 1 1 1 1 1
          1 1 1 1 1 1
          1 1 1 1 1 1
          1 1 1 1 1 1
          1 1 1 1 1 1
          1 1 1 1 1 1
          1 1 1 1 1 1
          1 1 1 1 1 1
          1 1 1 1 1 1
          1 1 1 1 1 1
          1 1 1 1 1 1
          1
        </DataArray>
      </Cells>
    </Piece>
  </UnstructuredGrid>
</VTKFile>
