<?xml version="1.0"?>
<VTKFile type="UnstructuredGrid" version="0.1" byte_order="LittleEndian" header_type="UInt32" compressor="vtkZLibDataCompressor">
  <UnstructuredGrid>
    <Piece NumberOfPoints="1759" NumberOfCells="1759">
      <PointData>
        <DataArray type="Int32" Name="id" format="ascii" RangeMin="1" RangeMax="1759">
          792 477 298 1166 133 1051
          791 624 668 19 991 887
          623 206 938 793 529 308
          1167 936 605 50 59 134
          625 385 1380 1114 531 244
          937 1434 626 1047 1654 766
          666 343 1168 1050 1113 989
          406 589 669 745 123 845
          241 484 174 990 794 318
          550 49 457 888 97 495
          846 42 324 15 44 22
          131 118 474 3 1048 264
          196 1295 1296 1297 1298 1299
          1300 1378 1379 1430 1432 1433
          1460 530 1488 1490 1541 1574
          1591 1652 1653 1702 1705 1706
          1002 1179 203 75 459 847
          844 886 40 276 460 992
          1053 592 748 1052 93 369
          593 430 993 386 994 842
          1170 245 408 1115 627 1226
          1 939 594 671 749 461
          78 889 266 795 407 1054
          890 150 117 628 1055 532
          175 1057 672 54 362 629
          497 797 675 892 711 24
          475 256 798 796 370 670
          891 1056 595 109 286 533
          996 940 225 7 1118 257
          1234 389 673 387 215 995
          674 363 1172 388 1058 561
          207 1119 1109 106 676 1059
          1227 800 1116 1171 124 119
          799 634 677 433 434 597
          371 141 1173 62 534 1229
          1117 562 1122 1120 895 633
          176 432 1121 501 998 893
          941 999 246 848 373 849
          329 596 498 894 535 1000
          258 435 1174 630 20 84
          750 997 267 1060 1175 713
          499 805 804 500 712 372
          1228 802 310 803 632 1062
          1001 1177 898 1176 801 154
          1235 502 1125 208 598 850
          806 478 1061 901 504 1123
          631 1124 436 751 198 678
          220 309 896 536 897 752
          374 188 899 277 161 1126
          462 807 166 1230 344 808
          503 942 1233 1231 61 390
          900 1063 299 1178 679 137
          1232 311 680 1301 1302 1303
          1304 1305 1306 1307 1308 1309
          1310 1311 1312 1313 1372 1381
          1382 1383 1384 1385 1386 1387
          1388 1389 1390 1391 1392 1393
          1169 1431 1435 1436 1437 1438
          1439 1440 1441 1442 1484 1492
          1493 1494 1495 1496 1497 1498
          1499 1489 1491 1542 1543 1544
          1545 1546 1547 1548 1549 1550
          1551 1552 1592 1593 1594 1595
          1596 1597 1598 1599 1600 1601
          1655 1656 1657 1658 1659 1660
          1661 1662 1663 1664 1707 1708
          1709 1710 1711 1712 1713 1714
          1715 1716 1717 1718 313 1245
          507 943 1180 851 809 209
          121 635 636 753 1003 1247
          177 391 268 1181 946 32
          505 599 312 945 944 1236
          682 51 754 537 479 506
          1005 411 563 1248 1065 1004
          811 1064 681 1066 77 1127
          947 810 1006 601 275 538
          813 1069 325 746 755 226
          1067 330 812 85 409 948
          1182 600 463 60 148 314
          1237 508 235 714 105 540
          1238 410 315 1068 1239 756
          186 300 852 539 81 167
          1110 1070 1007 221 950 853
          345 854 541 437 949 547
          151 92 1246 565 67 375
          903 907 227 904 18 1165
          1224 57 759 438 542 902
          1240 412 1071 602 509 824
          569 192 160 216 129 145
          135 1072 637 1129 1128 856
          814 1074 364 82 683 228
          1241 905 716 718 1073 715
          855 14 26 283 883 1244
          717 346 951 464 113 857
          480 1562 393 89 1243 288
          269 1008 764 906 1190 458
          348 543 12 690 1314 1315
          1316 1317 1318 1319 1502 1321
          1322 1323 1324 1373 1394 1395
          1396 1397 1398 1399 1242 1401
          1404 1443 1444 1445 1446 1447
          1448 1449 347 1485 1500 1501
          1512 1538 1553 1554 1555 1556
          1557 1558 1559 1561 1602 1603
          1604 1605 1606 1610 1608 1609
          237 1649 1665 1666 1667 1668
          1719 1720 1721 1722 1723 1724
          1725 1726 1727 1728 1729 859
          908 544 1009 909 566 511
          111 37 761 1130 317 229
          719 316 210 953 510 860
          911 858 1077 546 247 34
          910 816 638 366 1076 1075
          413 222 1010 545 90 270
          1457 640 481 242 365 862
          567 513 1184 1513 912 955
          1250 956 367 350 1320 1260
          168 439 1185 641 351 603
          762 79 818 1013 392 1186
          187 1249 199 101 1511 817
          1079 236 1011 643 604 331
          1251 1012 1080 1261 514 157
          515 2 126 259 1082 217
          142 69 1187 1402 1014 349
          649 278 332 568 1112 564
          230 863 1083 35 46 560
          642 289 864 394 684 644
          1131 271 958 1252 959 1081
          115 1111 622 155 757 760
          149 758 517 686 822 496
          934 86 440 819 685 1188
          1253 960 1259 483 820 414
          287 1085 72 1133 416 821
          482 720 415 1132 200 721
          1254 1084 1256 182 763 1191
          1015 914 765 691 913 352
          1262 961 39 1255 441 865
          1016 645 1189 136 333 13
          384 442 301 353 1257 687
          647 516 590 48 120 1263
          688 23 158 1405 1258 181
          465 204 646 189 1086 1135
          866 211 549 689 1017 96
          341 30 571 648 1137 99
          1136 95 548 823 962 570
          710 1456 1458 354 304 1325
          1326 1327 1328 1329 1330 1331
          1332 1333 1334 1335 1560 1374
          1400 1403 1450 1451 1452 1453
          1454 1455 1134 1486 1503 1504
          1505 1506 1507 1508 1509 1510
          1539 1564 1565 1566 1567 1568
          1569 1570 1571 1572 952 1563
          1183 1611 1612 1613 1614 1615
          1616 1617 1618 1619 1620 1621
          1622 1623 1648 1607 1669 1670
          1671 1672 1673 1674 1701 957
          1730 1731 1732 1733 1734 1735
          1736 1737 1738 1739 1740 279
          1018 1265 1264 1192 127 867
          789 43 723 418 466 572
          692 1138 56 417 110 218
          355 1139 395 405 73 476
          38 573 1461 915 722 1193
          1140 868 767 6 1019 1020
          650 280 33 825 869 574
          223 575 1267 965 248 179
          47 368 1266 963 964 41
          146 747 305 159 377 87
          91 17 173 88 265 935
          169 116 306 58 197 243
          102 884 1294 1336 1337 1338
          1375 1406 1407 1408 1409 1459
          485 1487 1514 1573 1624 1625
          1650 1675 1676 10 190 1741
          1742 518 107 1194 606 724
          396 238 916 11 1141 870
          357 1087 693 486 1021 1142
          918 607 290 917 1143 1195
          1088 871 576 1196 966 334
          1144 419 1145 1410 843 1022
          1089 162 1023 1525 1678 1090
          420 487 694 768 191 249
          651 608 872 103 726 138
          826 827 1268 212 1091 770
          489 272 551 1517 467 772
          319 45 284 130 1049 1679
          36 152 1339 1340 1341 1342
          1462 1463 1464 1465 1466 1470
          1515 1516 1575 1576 1577 1578
          1583 1626 1627 1651 1677 1743
          185 920 742 1281 285 1024
          398 1093 695 725 519 1279
          250 443 652 1197 224 356
          790 696 1025 577 397 1094
          609 1269 25 1026 444 828
          967 1198 55 612 873 335
          921 968 610 163 1270 488
          80 147 874 468 1271 260
          611 922 74 697 988 193
          727 923 1096 1146 378 1027
          1028 1147 1148 5 552 422
          1280 1272 578 1095 423 1029
          730 445 1199 291 969 183
          1149 326 320 4 379 1097
          164 108 654 1151 1203 261
          1200 424 1273 273 653 490
          446 184 1201 591 302 970
          520 613 579 773 132 829
          971 700 831 728 140 614
          972 1030 1274 777 1150 830
          231 1275 832 775 774 1152
          342 9 293 924 336 1153
          448 213 729 76 778 52
          447 698 1276 731 491 1204
          1277 294 779 470 292 1278
          699 521 925 776 973 833
          139 1202 195 492 1205 469
          780 1343 1344 1345 1346 1347
          1348 1349 1350 1376 1411 1412
          1413 1414 1415 1416 66 1467
          1468 1469 1473 1471 1472 1518
          1519 1520 1521 1522 1523 1524
          1582 769 771 1540 1579 1580
          1581 655 1590 1628 1629 1630
          1631 1632 1633 1634 1635 1680
          1688 1682 1683 1684 1685 1686
          1687 919 1744 1745 1746 1747
          1748 1749 1750 1751 1752 1092
          1206 449 781 743 1209 701
          1098 450 21 1371 376 104
          1647 1099 251 734 125 784
          709 875 1154 471 64 1207
          429 1031 65 1283 1282 783
          782 1208 733 29 639 122
          656 974 581 68 281 1284
          527 1210 321 580 667 399
          876 702 262 736 170 239
          421 327 156 975 1211 1212
          553 554 1155 1100 380 1287
          657 400 735 282 451 1285
          381 1286 926 737 877 358
          328 658 1032 1288 703 834
          232 452 927 472 1289 295
          878 1213 1225 28 219 523
          582 1033 979 976 980 738
          522 977 8 929 615 785
          1216 978 338 661 555 583
          1214 178 94 205 705 659
          401 1215 1217 1101 337 382
          63 1037 83 53 255 1038
          556 836 253 618 1036 1290
          704 1039 835 144 114 928
          1034 402 786 454 404 1157
          1158 383 1102 453 1035 359
          1103 983 665 981 660 425
          201 584 234 837 263 617
          1291 1156 194 274 930 1292
          663 839 664 153 31 431
          879 252 585 982 70 1219
          787 403 455 233 1161 1040
          931 473 1041 1218 426 165
          172 706 662 741 1293 708
          1222 27 360 1104 619 1159
          171 707 1162 427 616 296
          558 739 984 1044 240 214
          1106 71 428 361 528 557
          100 1105 586 740 303 1220
          788 1160 838 744 840 881
          1223 112 1221 525 588 98
          985 180 880 885 128 1042
          16 493 621 339 143 932
          323 1043 1107 732 933 1045
          1046 254 559 322 620 882
          841 524 340 987 1163 526
          307 587 986 1108 297 494
          202 456 1164 815 1681 1351
          1352 1353 1354 1355 1356 1357
          1358 1359 1360 1361 1362 1363
          1364 1365 1366 1367 1368 1369
          1370 1377 1417 1418 1419 1420
          1421 1422 1423 1424 1425 1426
          1427 1428 1429 1078 1474 1475
          1476 1477 1478 1479 1480 1481
          1482 1483 861 1526 1527 1528
          1529 1530 1531 1532 1533 1534
          1535 1536 1537 954 512 1584
          1585 1586 1587 1588 1589 1636
          1637 1638 1639 1640 1641 1642
          1643 1644 1645 1646 1689 1690
          1691 1692 1693 1694 1695 1696
          1697 1698 1699 1700 1703 1704
          1753 1754 1755 1756 1757 1758
          1759
        </DataArray>
        <DataArray type="Int32" Name="type" format="ascii" RangeMin="1" RangeMax="2">
          2 2 2 2 2 2
          2 2 2 1 2 2
          2 2 2 2 2 2
          2 2 2 1 1 1
          2 2 2 2 2 2
          2 2 2 1 2 2
          1 2 2 2 2 2
          2 1 2 1 1 2
          1 2 2 2 2 2
          2 1 1 2 1 1
          2 1 1 1 1 1
          1 1 1 1 1 1
          1 2 2 2 2 2
          2 2 2 1 2 2
          2 2 2 2 2 2
          2 2 2 1 2 2
          2 2 1 2 2 2
          2 2 1 2 2 2
          2 2 2 2 1 2
          2 1 2 2 2 1
          2 2 2 2 2 2
          1 2 2 2 2 2
          2 2 2 2 2 2
          2 1 1 2 2 2
          2 2 2 1 1 2
          2 2 2 2 2 1
          1 2 2 2 2 2
          2 2 2 2 2 2
          2 2 2 1 2 2
          2 2 2 2 1 2
          2 1 2 2 2 2
          2 2 1 2 2 2
          2 2 2 2 2 1
          2 2 2 2 2 2
          2 2 2 2 2 2
          2 2 2 2 2 2
          2 2 2 2 2 2
          2 2 2 2 2 2
          2 2 2 2 2 2
          2 2 2 2 1 1
          2 2 2 2 2 2
          2 2 2 2 2 2
          2 2 2 2 2 2
          2 2 2 2 2 2
          2 2 2 2 2 2
          2 2 2 2 2 2
          2 2 2 2 2 2
          2 2 2 2 2 2
          2 2 2 2 2 2
          2 2 1 2 2 2
          2 2 2 2 2 2
          2 2 2 2 2 2
          2 2 2 2 2 2
          2 2 2 2 2 2
          2 2 2 2 1 2
          2 2 2 2 2 2
          2 2 2 2 2 2
          2 1 2 2 2 2
          2 2 2 2 1 2
          2 2 2 2 2 2
          2 2 2 2 2 2
          2 2 2 2 2 2
          2 2 2 2 2 2
          2 2 2 2 2 2
          2 2 2 2 2 2
          2 2 2 2 2 2
          2 2 2 2 2 2
          2 2 2 2 2 2
          2 2 2 2 2 2
          2 2 2 2 2 2
          2 2 2 2 2 1
          2 2 2 2 2 2
          2 1 2 2 2 2
          2 2 2 2 2 2
          2 2 2 2 2 2
          2 2 2 2 1 2
          2 2 1 1 2 2
          2 2 2 1 2 2
          2 2 2 1 2 2
          2 2 2 2 2 2
          2 2 2 2 2 2
          1 2 2 2 1 1
          1 2 2 2 2 2
          2 2 2 2 2 2
          1 1 2 2 2 2
          2 2 2 2 1 1
          1 1 2 2 2 2
          2 2 2 2 2 2
          2 1 1 1 1 1
          2 2 2 2 2 2
          2 2 1 1 2 2
          2 2 2 2 2 2
          2 1 1 1 1 2
          2 2 2 2 2 2
          2 2 2 1 2 2
          2 2 2 2 2 1
          2 2 1 2 2 2
          2 2 2 2 2 2
          2 2 2 1 2 2
          2 2 2 2 2 2
          2 2 2 2 2 2
          2 2 2 1 2 2
          2 1 2 2 2 2
          2 2 2 2 2 2
          2 2 2 2 2 2
          2 1 2 2 2 2
          2 2 2 2 2 2
          2 2 2 2 2 2
          2 2 2 2 2 2
          2 1 2 2 2 2
          2 2 2 2 2 2
          2 2 2 2 2 1
          2 2 2 1 2 2
          2 2 2 2 1 2
          2 2 2 1 1 2
          2 2 2 2 2 2
          2 2 1 2 2 2
          1 2 2 2 2 2
          2 2 2 2 2 2
          1 2 2 1 2 2
          2 2 2 2 2 2
          2 2 2 2 2 2
          2 1 1 2 2 1
          2 2 2 2 2 2
          2 2 2 2 1 2
          2 2 2 1 1 1
          2 2 2 2 2 2
          2 2 2 2 2 2
          1 1 1 2 2 2
          2 2 2 2 2 1
          1 1 2 2 2 2
          2 2 2 2 2 2
          2 2 2 2 2 2
          2 2 2 2 2 2
          2 2 2 2 2 2
          2 2 2 2 2 2
          2 2 1 2 2 2
          2 2 2 2 2 1
          1 2 2 2 2 2
          2 2 1 1 1 2
          2 1 2 2 2 2
          2 1 2 2 2 2
          2 2 2 2 2 1
          1 1 2 2 2 1
          2 1 2 2 2 2
          1 2 2 2 1 2
          2 2 2 2 2 2
          2 2 2 2 2 1
          2 2 2 2 2 2
          2 2 2 1 2 2
          2 2 2 2 2 2
          1 2 2 2 2 2
          2 2 2 2 2 2
          2 2 2 2 2 2
          2 2 2 2 2 2
          2 2 2 2 2 2
          2 2 2 2 2 2
          2 2 2 2 2 2
          2 2 2 2 2 2
          2 2 2 2 2 2
          1 1 2 2 2 2
          2 2 1 2 1 1
          2 2 2 1 2 1
          1 2 2 2 2 2
          2 2 2 1 2 2
          2 2 1 2 2 2
          2 2 2 2 2 1
          1 1 2 2 2 1
          1 1 1 2 2 1
          1 1 1 1 1 1
          1 1 1 1 1 1
          1 1 1 2 2 2
          1 2 2 2 2 2
          2 1 2 2 2 2
          1 2 2 1 2 2
          2 2 2 2 2 2
          2 2 2 1 2 2
          2 2 2 2 2 2
          2 2 2 2 2 2
          2 2 2 2 2 2
          2 2 2 2 1 2
          2 2 2 2 2 2
          2 2 2 2 2 2
          2 2 2 1 2 2
          2 2 2 2 2 2
          2 2 2 2 2 2
          2 1 1 1 1 2
          1 1 2 2 2 2
          2 2 2 2 2 2
          2 2 2 2 2 2
          2 2 2 1 2 2
          2 2 2 2 1 2
          2 2 2 2 2 2
          2 2 2 2 1 2
          1 2 2 2 2 2
          2 2 1 2 2 2
          2 2 1 2 2 2
          2 2 2 2 2 2
          1 1 2 2 2 2
          2 2 2 2 1 1
          2 2 2 2 2 2
          2 2 2 1 2 2
          2 2 2 2 2 2
          2 2 2 2 2 2
          2 1 2 1 2 2
          2 2 2 2 2 2
          2 2 2 2 2 2
          2 2 2 1 2 2
          2 2 2 2 2 2
          2 2 2 2 1 2
          2 2 2 2 2 2
          2 2 2 2 2 2
          1 1 2 2 2 2
          2 2 2 2 2 1
          2 2 2 2 2 2
          2 2 2 2 2 2
          2 2 2 2 2 2
          2 2 2 2 2 2
          2 2 2 2 2 2
          2 2 2 1 2 2
          2 2 2 2 2 2
          2 2 2 2 2 2
          2 2 2 2 2 2
          2 2 2 1 2 2
          2 2 1 2 2 2
          2 2 2 2 2 2
          2 2 2 2 2 2
          2 2 2 2 2 2
          2 2 2 2 2 2
          2 2 2 2 2 2
          2 2 1 2 2 1
          2 2 2 2 2 2
          2 2 2 2 2 2
          2 2 2 2 2 2
          2 2 2 1 2 2
          2 2 2 2 2 2
          1 2 2 2 1 2
          2 2 2 2 2 2
          2 1 2 2 2 2
          2 2 2 2 2 2
          2 2 2 2 2 2
          2 2 2 2 2 2
          1 2 2 2 2 2
          2 2 2 2 2 2
          2 2 1 1 1 2
          2 2 2 2 2 2
          2 2 1 2 2 2
          2 2 2 2 2 2
          2 2 1 1 2 2
          2 2 2 2 2 2
          2 2 1 1 1 2
          2 2 2 2 2 2
          2 2 2 2 2 2
          2 2 2 2 2 2
          2 2 2 2 2 2
          2 2 2 2 2 2
          2 2 2 2 2 2
          2 2 1 2 2 2
          2 2 2 1 1 1
          2 2 2 2 2 2
          2 2 2 2 2 2
          2 2 2 2 2 2
          2 2 2 2 2 2
          2 1 2 2 2 2
          2 2 2 2 2 2
          2 2 2 2 2 2
          2 2 2 2 1 2
          1 2 2 2 2 2
          2 2 2 2 2 2
          2 2 2 2 2 1
          2 2 2 1 2 2
          1 2 2 2 2 2
          2 2 2 2 2 2
          2 2 2 2 2 2
          2 2 2 2 2 2
          1 2 2 2 2 2
          2 2 2 2 2 2
          2 2 2 2 2 2
          2 2 2 2 2 2
          2 2 2 2 2 2
          2 1 2 2 2 2
          2 2 2 2 2 2
          2 2 2 2 2 2
          2 2 2 2 2 2
          2 2 2 2 2 2
          2 2 2 2 2 2
          2 2 2 2 2 2
          2 2 2 2 2 2
          2 2 2 2 2 2
          2 2 2 2 2 2
          2 2 2 2 2 2
          2 2 2 2 1 1
          2 2 2 2 2 2
          2
        </DataArray>
        <DataArray type="Float64" Name="diameter" format="ascii" RangeMin="7.7659776717e-07" RangeMax="1.9675928266e-06">
          9.1622140219e-07 9.2954555985e-07 9.8260148946e-07 9.1935234477e-07 1.0013581731e-06 9.4714319535e-07
          9.8646519359e-07 9.194167284e-07 1.0211559849e-06 1.6358919396e-06 1.0241177742e-06 8.7962811921e-07
          9.5764898326e-07 9.1170874468e-07 8.7166074518e-07 9.2937760314e-07 9.5053884492e-07 8.6883598283e-07
          1.0148774299e-06 8.8593649805e-07 8.2019163051e-07 1.6659727306e-06 1.7406157287e-06 1.5908808936e-06
          1.0213014411e-06 1.04634307e-06 8.8903005721e-07 9.8805593773e-07 1.0221035167e-06 8.7115261763e-07
          1.0058970301e-06 8.7846651861e-07 9.9686621438e-07 1.6676892243e-06 8.6122713897e-07 9.9790299109e-07
          1.6865424483e-06 8.7012282141e-07 9.1653720469e-07 9.8642489022e-07 9.7710307986e-07 8.5240550721e-07
          9.2250993456e-07 1.6432087347e-06 9.9570685355e-07 1.7379964184e-06 1.8185966863e-06 9.5756542505e-07
          1.7923538677e-06 8.4826006563e-07 1.010499005e-06 1.0046103179e-06 9.0766601849e-07 9.496733155e-07
          9.4867426609e-07 1.7918295489e-06 1.7411105686e-06 1.0370697781e-06 1.6412971258e-06 1.7204847624e-06
          1.0420515965e-06 1.8759551223e-06 1.7818734944e-06 1.6529170919e-06 1.9656724612e-06 1.7170807649e-06
          1.9658771335e-06 1.8093581171e-06 1.8134458575e-06 1.9154712573e-06 1.6452685765e-06 1.8185149562e-06
          1.8966898636e-06 8.9526194883e-07 9.2838061997e-07 9.2316467694e-07 8.9263202955e-07 9.7719361003e-07
          9.1633089796e-07 9.3485836415e-07 8.703089272e-07 1.6146828991e-06 9.3416027658e-07 8.8898926445e-07
          8.8721355098e-07 1.0104415917e-06 8.9493237305e-07 8.9451113514e-07 8.2290728492e-07 8.854372069e-07
          8.0221344097e-07 8.2356662559e-07 8.8607164751e-07 1.4883706501e-06 8.1150550615e-07 8.2763895179e-07
          8.7690913559e-07 9.6308427291e-07 1.8240053819e-06 8.1889557598e-07 8.6729867112e-07 9.3169018263e-07
          9.2243946532e-07 8.7311875033e-07 1.7348996519e-06 9.4625675897e-07 1.0439452745e-06 1.0018694563e-06
          1.0217226473e-06 8.3635527435e-07 9.5057834153e-07 8.1996617224e-07 1.5999538589e-06 9.7522184892e-07
          8.6212508149e-07 1.8322647839e-06 9.8032760584e-07 8.6931739336e-07 9.8641712513e-07 1.592178123e-06
          9.5541201583e-07 9.8554311361e-07 8.6468077933e-07 1.0135102096e-06 1.0418486635e-06 8.9000832929e-07
          1.7621193455e-06 1.0135013739e-06 9.6400941301e-07 8.9739545514e-07 9.4095948891e-07 7.9420502552e-07
          9.3027723022e-07 8.3246188912e-07 8.8524764246e-07 9.1038655666e-07 9.4924438416e-07 1.0023821292e-06
          9.3569858993e-07 1.9456062883e-06 1.8014583341e-06 9.1838597298e-07 8.0512212793e-07 8.0185482149e-07
          9.8412575559e-07 1.0460811207e-06 9.2007961525e-07 1.8554509763e-06 1.7623976602e-06 1.007859987e-06
          1.0367083938e-06 9.3861550201e-07 9.6969922719e-07 9.1839932767e-07 9.3410765514e-07 1.6659188707e-06
          1.7297301678e-06 9.3536738874e-07 8.88591444e-07 8.6680904326e-07 1.0431498421e-06 9.3697479979e-07
          1.0323891827e-06 1.0129856334e-06 9.2442777598e-07 9.4906608908e-07 9.1847502031e-07 8.5718405434e-07
          9.6210161426e-07 9.80936299e-07 9.2738452325e-07 1.9675928266e-06 9.7830194771e-07 1.0352124344e-06
          9.8242606113e-07 8.6711753848e-07 1.0025408562e-06 9.6245930601e-07 1.8679982406e-06 1.0272219457e-06
          9.5268484418e-07 1.7743173396e-06 1.0239800979e-06 9.2224236377e-07 1.0321705964e-06 8.8271029042e-07
          8.8641425145e-07 1.0462151545e-06 1.6141661113e-06 9.9659371841e-07 9.2570116124e-07 8.8314329746e-07
          9.3469738158e-07 9.2627758593e-07 9.3544426494e-07 9.4688604481e-07 1.0110674516e-06 1.5919792449e-06
          8.2965215205e-07 8.5521536889e-07 1.0127565125e-06 8.7992874663e-07 9.3242403267e-07 8.3992630704e-07
          9.0969269046e-07 1.0266246486e-06 1.0029091624e-06 9.1604193879e-07 8.8841863814e-07 9.7142857146e-07
          1.0138418338e-06 8.0909832725e-07 9.9042756589e-07 1.0472005027e-06 8.2336387281e-07 9.2164892985e-07
          9.0399636294e-07 9.4825222637e-07 9.6978618572e-07 8.8611901075e-07 9.602919979e-07 8.7939055151e-07
          8.2848094823e-07 8.9319512898e-07 8.7703446921e-07 9.225541429e-07 9.3405112351e-07 8.8413426354e-07
          1.0190516451e-06 8.5807060526e-07 9.0856045384e-07 1.0410259471e-06 9.8460610807e-07 1.0008544435e-06
          9.0833275852e-07 8.8952759516e-07 9.6207773871e-07 9.0710943449e-07 1.8438665055e-06 1.575853049e-06
          9.3643181308e-07 9.7943682556e-07 9.1158260389e-07 9.6370219222e-07 9.1894549812e-07 9.4014494562e-07
          9.8000121599e-07 9.0869692531e-07 9.1776568279e-07 1.0076576793e-06 9.5103240675e-07 8.6587778976e-07
          9.3643319432e-07 1.0361013698e-06 9.3757243641e-07 8.4784707099e-07 1.0257141566e-06 8.12743987e-07
          9.8113066287e-07 9.158734321e-07 8.9219530824e-07 9.2899763377e-07 9.6788409231e-07 1.04865578e-06
          9.8880955558e-07 8.2886664258e-07 1.0012068868e-06 8.1361182982e-07 1.037572297e-06 8.3451688835e-07
          9.0855688685e-07 9.4215882854e-07 9.2176281644e-07 1.0320889685e-06 8.5166640896e-07 1.036477372e-06
          1.0001149633e-06 9.3389784479e-07 1.0150927196e-06 8.1604269293e-07 1.0318397473e-06 1.0025256321e-06
          8.5312572027e-07 7.8682362601e-07 9.4149095093e-07 9.612504757e-07 1.0359141907e-06 9.9268965898e-07
          8.5188206285e-07 9.8785143391e-07 1.0106672118e-06 9.2684794913e-07 9.4248532178e-07 9.8143227897e-07
          1.0101400417e-06 8.5097198261e-07 1.9580611478e-06 9.1539805815e-07 9.779095948e-07 9.1899804814e-07
          8.0435114801e-07 1.0242656807e-06 8.9379979772e-07 8.8299389273e-07 9.2829753025e-07 9.1537300521e-07
          8.8540028301e-07 1.0060943291e-06 8.7560235203e-07 9.4329973095e-07 1.0057395126e-06 9.3333716288e-07
          9.7820835302e-07 8.4805040851e-07 9.8384677872e-07 9.3850531375e-07 9.0716995268e-07 9.4257500365e-07
          9.725202429e-07 9.4906652673e-07 9.3808121687e-07 9.6677075233e-07 9.1318954682e-07 9.5775872739e-07
          9.3792341993e-07 9.2498274641e-07 9.1242260907e-07 8.910746134e-07 1.643980656e-06 9.0960763441e-07
          9.1302839146e-07 8.8186802618e-07 8.8647498297e-07 9.4469062115e-07 9.3502962927e-07 9.2188684148e-07
          9.0336387939e-07 9.2404196617e-07 8.9554034413e-07 8.9684612506e-07 9.0251397563e-07 9.2410218736e-07
          1.0153575346e-06 1.6229230134e-06 8.6717858061e-07 8.459029349e-07 8.4577671963e-07 9.2875007058e-07
          8.3367454064e-07 9.3070791536e-07 8.6421466186e-07 9.263387308e-07 1.5925504253e-06 8.3448940669e-07
          8.3166695542e-07 8.485898535e-07 9.3462027366e-07 9.1590471838e-07 8.3499795816e-07 9.0213471926e-07
          8.3649205044e-07 8.8825127688e-07 8.6451766106e-07 8.7388306959e-07 9.0028192021e-07 8.6141214593e-07
          8.693137741e-07 8.1104819155e-07 8.7260395423e-07 8.8134913014e-07 8.5331020383e-07 9.1500897607e-07
          9.1106048411e-07 8.6162383519e-07 8.9103341779e-07 8.5025792181e-07 9.1352765783e-07 8.3466843332e-07
          8.5795645526e-07 8.9098571693e-07 8.4383401296e-07 8.252098576e-07 7.973439979e-07 8.788862888e-07
          8.7022081229e-07 8.6337551151e-07 8.8894170384e-07 8.3687214827e-07 8.6446017871e-07 8.1760793572e-07
          8.7143989959e-07 8.7978041788e-07 8.9848764259e-07 8.8232012556e-07 8.0881503661e-07 8.0306501293e-07
          8.5024626515e-07 8.1207134764e-07 8.0252559848e-07 8.7097960117e-07 7.7659776717e-07 7.8246320032e-07
          7.8201046635e-07 8.5749910922e-07 7.7989655246e-07 8.2280397883e-07 1.0156294625e-06 9.9017672725e-07
          7.9736654334e-07 8.2725298062e-07 9.2319182436e-07 8.3157866624e-07 9.7970872141e-07 9.9672384133e-07
          8.2207684897e-07 8.5886502394e-07 9.8372365436e-07 8.9500167286e-07 1.0412408542e-06 8.9156421047e-07
          8.6574869792e-07 9.0570677878e-07 9.4750152311e-07 9.5179266161e-07 8.3435991381e-07 1.8872890283e-06
          1.0017976232e-06 1.0268906992e-06 8.4490142585e-07 8.1356187936e-07 8.4205938194e-07 9.6187942831e-07
          9.8733430853e-07 1.8111397092e-06 8.6233710516e-07 8.3633484917e-07 8.1960129485e-07 1.0160624493e-06
          1.0180240391e-06 1.0175847665e-06 9.2195107903e-07 9.750847076e-07 9.920030027e-07 8.4607239687e-07
          7.9836440635e-07 8.4625222625e-07 9.3627314149e-07 1.023673975e-06 9.8510359405e-07 1.0233692337e-06
          1.0111969645e-06 9.2537054539e-07 1.0453819868e-06 9.9797204741e-07 1.8286592742e-06 9.8090935206e-07
          9.1152320035e-07 1.0231994534e-06 1.8463433351e-06 1.6167464053e-06 9.2810464816e-07 9.5975975407e-07
          1.0419683614e-06 1.0240043761e-06 8.8289191401e-07 1.8975520899e-06 1.0211872809e-06 9.0417915618e-07
          9.0307761274e-07 9.990468421e-07 1.0444279385e-06 1.7828631811e-06 9.4974214411e-07 9.6525593382e-07
          9.2877735567e-07 9.828539167e-07 8.3953231658e-07 8.619039074e-07 9.0353637993e-07 1.0128478112e-06
          9.2679611177e-07 9.1602572935e-07 9.898254559e-07 9.7153772784e-07 9.1932117342e-07 1.0154176881e-06
          1.6781903594e-06 8.7195622022e-07 8.752188478e-07 8.4703342191e-07 1.7093855259e-06 1.9561888891e-06
          1.5409971345e-06 9.9965949738e-07 9.1682626917e-07 8.8035635432e-07 9.6550732959e-07 9.3697053831e-07
          8.2458554643e-07 8.9283071104e-07 8.8873251324e-07 9.1685583317e-07 8.8072404652e-07 9.0456228376e-07
          1.9617541478e-06 1.8122991604e-06 9.3162492953e-07 1.0235478774e-06 9.6137769267e-07 9.0042518854e-07
          1.0387427016e-06 8.8939402996e-07 8.6810222449e-07 8.1639376888e-07 1.5603376139e-06 1.5643210781e-06
          1.7196616801e-06 1.8127997942e-06 9.6567981235e-07 8.6768376052e-07 1.0303811207e-06 1.046624993e-06
          9.26685543e-07 9.5250598085e-07 9.8260427195e-07 9.2259611251e-07 1.0467541263e-06 8.8509377374e-07
          1.047488074e-06 1.9042224614e-06 1.9490044118e-06 1.8188102998e-06 1.7356036271e-06 1.9175916787e-06
          9.979826925e-07 1.0242143174e-06 9.7900910537e-07 1.0415960125e-06 9.2828845735e-07 8.4324405825e-07
          9.3709991809e-07 9.7304236169e-07 1.8039131424e-06 1.5731541899e-06 9.8891726679e-07 8.2508142083e-07
          9.5735108977e-07 8.519105763e-07 9.428716592e-07 8.9651892864e-07 8.3691641852e-07 1.0422525417e-06
          9.0933423751e-07 1.526032464e-06 1.5891255855e-06 1.8911711435e-06 1.7500814409e-06 8.8158701157e-07
          1.0090697755e-06 8.8013387904e-07 1.0195000896e-06 8.7734570958e-07 9.7754377215e-07 8.4088662784e-07
          1.0500429147e-06 8.6089785769e-07 1.001955554e-06 1.764518394e-06 8.9747222652e-07 8.5925517296e-07
          9.6355547083e-07 1.0202681889e-06 9.9156153592e-07 1.0130979392e-06 9.9298394298e-07 1.7909183545e-06
          9.1998888635e-07 8.5363951803e-07 1.599485204e-06 9.7555593712e-07 8.6210343356e-07 9.7503899058e-07
          9.3895550073e-07 9.2306027162e-07 9.8641513906e-07 9.4317236004e-07 8.8346027235e-07 9.5365677551e-07
          9.8200022602e-07 8.854906157e-07 8.6633028967e-07 1.6518994977e-06 9.7309606044e-07 9.1476795539e-07
          9.3485603015e-07 8.7252274083e-07 9.4776611078e-07 9.0308882056e-07 8.8962412447e-07 8.7635417337e-07
          8.8620781624e-07 9.5042383862e-07 9.4210328895e-07 8.7716790454e-07 9.0605140801e-07 9.4471612029e-07
          8.5333445679e-07 9.1381444146e-07 8.7600074273e-07 1.6061287055e-06 8.785445239e-07 8.8475525451e-07
          8.3095952184e-07 1.4921543457e-06 9.1651284253e-07 9.0474722233e-07 8.7537484745e-07 8.2525252865e-07
          8.2749120392e-07 8.274136865e-07 8.4832943467e-07 8.2983011145e-07 8.8449500284e-07 8.2648419345e-07
          8.0450783184e-07 8.8118883199e-07 8.144515045e-07 8.4852857985e-07 8.8901785301e-07 8.581004933e-07
          8.5648016834e-07 1.5875395666e-06 8.58361943e-07 8.9589434262e-07 8.6394455374e-07 8.5792324868e-07
          8.763079642e-07 8.2747277173e-07 8.5654036099e-07 8.5040223131e-07 8.3547314879e-07 8.2105162211e-07
          8.0268009976e-07 8.4830535674e-07 8.4343275228e-07 8.181872355e-07 8.1280554376e-07 8.6236685524e-07
          8.1592110809e-07 8.4297060986e-07 1.0288980266e-06 8.6610621793e-07 1.013293095e-06 7.9156650644e-07
          8.444243675e-07 1.8139470538e-06 9.1765017794e-07 1.0230706994e-06 8.7214108103e-07 9.3271356255e-07