<?xml version="1.0"?>
<VTKFile type="UnstructuredGrid" version="0.1" byte_order="LittleEndian" header_type="UInt32" compressor="vtkZLibDataCompressor">
  <UnstructuredGrid>
    <Piece NumberOfPoints="234" NumberOfCells="234">
      <PointData>
        <DataArray type="Int32" Name="id" format="ascii" RangeMin="1" RangeMax="234">
          133 174 75 19 134 59
          50 123 97 49 42 118
          131 15 22 44 3 196
          206 93 40 1 78 176
          175 54 150 117 24 7
          124 119 20 109 154 62
          106 84 141 161 137 61
          166 188 198 203 207 208
          215 220 225 148 121 77
          177 32 51 60 85 105
          81 151 167 129 155 67
          18 92 160 145 135 14
          26 82 57 158 89 12
          181 186 189 192 209 216
          221 226 227 228 111 222
          37 34 142 156 90 168
          79 46 35 101 157 2
          126 86 115 136 69 48
          120 72 149 39 13 99
          30 113 23 96 95 182
          187 199 200 204 210 211
          217 229 230 110 43 127
          56 33 159 73 6 38
          179 146 47 87 116 17
          173 88 41 169 91 102
          58 10 190 197 218 223
          107 11 162 66 138 103
          45 130 152 36 191 212
          125 55 163 25 80 147
          74 5 140 4 132 108
          164 9 76 139 52 183
          184 185 193 195 213 224
          231 68 104 21 29 65
          170 122 178 28 8 83
          94 114 144 63 53 165
          153 27 70 171 31 128
          180 16 112 172 100 71
          98 143 194 201 202 205
          214 219 64 232 233 234
        </DataArray>
        <DataArray type="Int32" Name="type" format="ascii" RangeMin="1" RangeMax="2">
          2 2 2 1 1 1
          1 1 1 1 1 1
          1 1 1 1 1 1
          2 1 1 1 2 2
          2 1 1 1 1 1
          2 1 1 2 2 2
          2 1 2 2 2 2
          1 2 2 1 2 2
          1 2 2 2 2 2
          2 1 1 1 1 2
          1 1 1 1 2 2
          1 1 1 1 2 1
          1 1 1 2 1 1
          2 1 2 1 2 1
          2 2 2 2 2 2
          1 1 2 2 1 1
          2 1 1 1 2 1
          1 1 1 2 2 1
          1 2 2 1 1 1
          1 2 1 1 1 2
          1 2 2 1 2 2
          1 2 2 1 1 2
          1 1 2 2 1 1
          1 1 1 1 1 1
          1 1 1 1 1 1
          1 1 2 1 1 2
          2 1 2 2 2 1
          1 1 1 1 2 2
          2 1 2 1 1 1
          2 1 1 1 2 2
          2 1 2 2 1 2
          2 2 1 2 2 1
          2 2 1 1 1 2
          2 2 2 1 1 1
          1 2 2 2 1 2
          1 1 2 2 1 2
          2 1 2 2 1 2
          1 2 1 2 2 1
          2 1 2 2 2 2
        </DataArray>
        <DataArray type="Float64" Name="diameter" format="ascii" RangeMin="7.8517255842e-07" RangeMax="1.9593300276e-06">
          9.0551390916e-07 1.038375307e-06 9.6741068226e-07 1.7092227875e-06 1.6584478611e-06 1.7734366634e-06
          1.7617868617e-06 1.7955049038e-06 1.9542767413e-06 1.81779916e-06 1.8935807102e-06 1.8374668834e-06
          1.6144197979e-06 1.7062822937e-06 1.8278313845e-06 1.614251714e-06 1.933030305e-06 1.5576017242e-06
          8.9627082083e-07 1.6516091618e-06 1.8467996364e-06 1.739744652e-06 1.0346341852e-06 1.0028277726e-06
          9.9260437238e-07 1.8728839652e-06 1.5977729602e-06 1.8275675193e-06 1.6973312638e-06 1.6158288061e-06
          1.004509072e-06 1.6633415968e-06 1.8725113558e-06 9.3780937156e-07 1.02930123e-06 8.3177638883e-07
          8.7979018491e-07 1.6664841421e-06 9.7260255507e-07 1.0054763214e-06 9.6668289542e-07 8.9841191437e-07
          1.6080011327e-06 9.1059797275e-07 8.5175277154e-07 1.4979117786e-06 8.3629687216e-07 8.9301150948e-07
          1.5340396207e-06 8.9588313062e-07 8.1397546289e-07 8.8597406294e-07 8.9656966882e-07 1.0469674066e-06
          9.8879765291e-07 1.9228756287e-06 1.8923262401e-06 1.7629327402e-06 1.5583098695e-06 8.9484090159e-07
          1.6969282225e-06 1.6110339896e-06 1.6064636911e-06 1.7010649946e-06 8.9935033323e-07 9.941182411e-07
          1.6286345839e-06 1.8708100931e-06 1.6005636168e-06 1.5747668389e-06 9.7528404397e-07 1.6850721988e-06
          1.6530697333e-06 1.6694333793e-06 1.9170583318e-06 8.5381267802e-07 1.839460028e-06 1.7363501495e-06
          9.3532853115e-07 1.6457645079e-06 9.3581806285e-07 1.5637876835e-06 8.8450445201e-07 1.4936454071e-06
          8.4725535571e-07 7.8517255842e-07 7.9799399299e-07 8.4888397491e-07 8.9637057263e-07 8.3429921653e-07
          1.8725112743e-06 1.8691334776e-06 9.7576976576e-07 1.0305227077e-06 1.5592900304e-06 1.6056902796e-06
          8.5138253389e-07 1.8769104765e-06 1.6516125921e-06 1.8035387807e-06 1.0406993135e-06 1.7866377813e-06
          1.6970355384e-06 1.6686296569e-06 1.7035213826e-06 9.8959082315e-07 9.6632709037e-07 1.8191449756e-06
          1.7270644445e-06 8.5073948053e-07 1.052710789e-06 1.6141779825e-06 1.878315906e-06 1.7899101964e-06
          1.8618320027e-06 8.4838459728e-07 1.9014406966e-06 1.7709695526e-06 1.9558178967e-06 9.3217683035e-07
          1.6467996731e-06 8.5457458775e-07 8.6172771105e-07 1.5499066968e-06 8.914409664e-07 9.162583409e-07
          1.4923287938e-06 8.7025676063e-07 8.5705495532e-07 1.7494602365e-06 1.6073452521e-06 9.5933928816e-07
          1.8584702717e-06 1.8266532042e-06 8.5201145196e-07 1.0252391548e-06 1.8725112857e-06 1.9025277698e-06
          1.589642099e-06 1.5747668657e-06 1.9389857408e-06 1.6791593221e-06 1.7625492718e-06 1.6689551074e-06
          1.5852548053e-06 1.6519524098e-06 1.8969844266e-06 1.5941645201e-06 1.5418198421e-06 1.7220477671e-06
          1.7363501787e-06 1.9593300276e-06 9.49546774e-07 1.6283490344e-06 1.543346022e-06 8.9352760478e-07
          1.0436375863e-06 1.7437142671e-06 1.0329485327e-06 8.7204735905e-07 9.2671418923e-07 1.921523507e-06
          1.8804308465e-06 1.7942324012e-06 1.7077634037e-06 1.5858388917e-06 9.7187039907e-07 8.9773857039e-07
          1.0221295874e-06 1.9220486036e-06 1.052242341e-06 1.7516973582e-06 1.6387127362e-06 1.5557136064e-06
          1.0049949465e-06 1.8935807003e-06 1.7214354877e-06 1.6436182528e-06 9.8611437806e-07 8.9779125368e-07
          1.006310373e-06 1.666134498e-06 9.2152446796e-07 9.3949232633e-07 1.5930115595e-06 9.4562147788e-07
          9.459389148e-07 9.6430346839e-07 1.5472105275e-06 9.3793138659e-07 8.6805954293e-07 1.5371069627e-06
          7.8624463559e-07 9.703099487e-07 1.7797976571e-06 1.8146814742e-06 1.8906980548e-06 1.0380941016e-06
          9.9623964301e-07 8.4423156233e-07 9.3629487472e-07 1.8923262345e-06 1.6154629166e-06 1.6841188365e-06
          1.6183986107e-06 8.7104101378e-07 9.0166334497e-07 8.6663681033e-07 1.846799648e-06 1.00297204e-06
          1.6250169603e-06 1.9500026934e-06 1.0343491309e-06 1.0294829872e-06 1.8109622862e-06 1.0312089756e-06
          9.2238675486e-07 1.6708275464e-06 1.0478553591e-06 9.8656250171e-07 1.731832113e-06 8.7741246583e-07
          1.9023802605e-06 9.4744667323e-07 1.5153417144e-06 9.379248576e-07 8.7657075248e-07 1.536479348e-06
          8.968637479e-07 1.5344453195e-06 9.0154338814e-07 8.52859477e-07 8.0198265008e-07 8.2451268502e-07
        </DataArray>
      </PointData>
      <CellData>
      </CellData>
      <Points>
        <DataArray type="Float32" Name="Points" NumberOfComponents="3" format="ascii" RangeMin="9.7672152958e-06" RangeMax="0.00013167943585">
          1.9622984837e-05 2.345709072e-05 4.4774515118e-07 1.9697245079e-05 2.3021315428e-05 1.7164750261e-06
          2.0255240088e-05 2.3766921004e-05 1.4160692672e-06 4.9555333135e-06 8.5538576968e-06 1.9486051315e-06
          1.2851462088e-05 1.6988147763e-05 1.7682681346e-06 4.072741649e-05 1.5487619748e-05 2.4707890134e-06
          1.3362891877e-05 1.5572108168e-05 2.5332012683e-06 4.9442137424e-06 7.686770914e-06 3.4448219139e-06
          4.1295967094e-05 1.5513442122e-05 4.2212100198e-06 3.1443552871e-05 8.1866019173e-06 5.5092114053e-06
          1.7200000002e-05 5.7000002016e-06 6.1699997786e-06 1.4883903532e-06 9.2980844784e-06 6.2920357777e-06
          3.21200896e-05 9.1230713224e-06 6.7823675636e-06 2.0337113256e-06 1.0850947547e-05 6.9271195571e-06
          1.4600000213e-05 8.9300001491e-06 7.4399999903e-06 2.5834011467e-05 1.6655209038e-05 6.613374353e-06
          4.6400000429e-05 1.1600000107e-05 7.9499995991e-06 2.537420005e-05 1.6939708075e-05 8.0804238678e-06
          1.9056680685e-05 2.3227643396e-05 1.0641690551e-06 1.4085217117e-05 3.8700956793e-05 2.4170051347e-06
          1.4506966181e-05 4.0402104787e-05 2.2930814794e-06 2.9405657187e-05 4.0633305616e-05 3.5223047234e-06
          4.5869601308e-05 4.0925042413e-05 3.8030577798e-06 4.5144581236e-05 4.0790677303e-05 4.8543683988e-06
          4.5683500502e-05 4.1528335714e-05 4.551353868e-06 3.1035349821e-05 4.8795245675e-05 4.8637703003e-06
          3.9058355469e-05 3.9069058403e-05 5.0085805015e-06 2.9394090234e-05 3.9747352275e-05 5.0510716392e-06
          3.9555943658e-05 3.7691344914e-05 5.752810921e-06 1.7226255295e-05 3.9848757297e-05 5.523852451e-06
          4.5723641961e-05 4.114186595e-05 5.5515984059e-06 3.1728253816e-05 4.975437696e-05 6.1677383201e-06
          4.6368681978e-06 2.9522787372e-05 6.884611139e-06 4.5809147196e-06 3.2291452953e-05 6.0466159084e-06
          5.8921364143e-06 3.3382992115e-05 7.164330782e-06 4.8530164349e-06 3.3893509681e-05 6.7929945544e-06
          3.7241956306e-05 3.9527512854e-05 7.3870801316e-06 6.0489605858e-06 2.9217466363e-05 7.9217616076e-06
          4.4066205191e-06 3.2737480069e-05 7.53853692e-06 3.6676297896e-05 4.0469247324e-05 7.8772372945e-06
          3.6084362364e-05 4.0559534682e-05 8.7834478109e-06 3.7819059798e-05 4.0285725845e-05 9.0212552095e-06
          5.1558890846e-06 2.9673485187e-05 9.1942420113e-06 3.6938032281e-05 4.0233153413e-05 8.9903542175e-06
          4.8863271331e-06 3.2762844057e-05 8.3068762251e-06 1.3710221538e-05 3.8497411879e-05 9.1739144636e-07
          4.6741920414e-06 3.2874046155e-05 6.7052733357e-06 3.8018893974e-05 3.9933765947e-05 8.2450378613e-06
          1.7759888578e-05 4.1313214751e-05 5.691786555e-06 4.9979403229e-06 3.3445685403e-05 7.4990166468e-06
          3.6639645259e-05 3.9993952669e-05 7.0519649853e-06 3.5899029172e-05 6.9921872637e-05 2.5375004498e-06
          3.6573455873e-05 6.9504836574e-05 1.8345915578e-06 3.6515011743e-05 7.0578294981e-05 2.2313961381e-06
          3.7503450585e-05 7.042260404e-05 2.2124531824e-06 3.5306176869e-05 7.2273112892e-05 1.9936178433e-06
          3.7406809952e-06 5.7287314121e-05 3.1500471778e-06 1.5957921278e-05 6.7340413807e-05 3.6670883219e-06
          3.5224875319e-05 7.0679336204e-05 3.1846520869e-06 4.0226982492e-06 7.284565072e-05 3.840131285e-06
          4.0351451389e-06 5.6524440879e-05 4.8516149036e-06 4.5965093705e-06 5.8064997575e-05 5.0282756092e-06
          9.2227273853e-06 6.7021879659e-05 5.1014849305e-06 1.5450303181e-05 6.7654495069e-05 5.286666692e-06
          3.4593151668e-06 7.3491159128e-05 5.1740598792e-06 5.1421002354e-06 7.3223360232e-05 4.958363661e-06
          1.0067606127e-05 5.4728352552e-05 5.5567966228e-06 2.3116723241e-05 6.551786646e-05 5.8561249716e-06
          5.8599107433e-06 6.2764265749e-05 6.4209384618e-06 4.9303794185e-06 7.0345595304e-05 6.258349913e-06
          4.5962142394e-06 7.2894603363e-05 5.9478052208e-06 7.3765763773e-06 6.2168277509e-05 6.6533384597e-06
          2.3031954697e-05 6.4252482844e-05 7.0795103966e-06 9.2692262115e-06 6.7042572482e-05 6.7276087066e-06
          9.8389318737e-06 6.8723413278e-05 6.5673257268e-06 2.8514012229e-05 7.3977229476e-05 7.3672085819e-06
          7.3239266385e-06 6.3476072683e-05 7.897229807e-06 5.3490575738e-06 7.0669440902e-05 7.8138637036e-06
          4.8927413445e-06 7.3802519182e-05 5.6977301028e-06 3.5336266592e-05 7.1962058428e-05 4.1576877265e-06
          4.2981755541e-06 7.3477160186e-05 6.6078873715e-06 9.2878390205e-06 5.3496056353e-05 6.2298718149e-06
          3.5465644032e-05 6.9713583798e-05 1.7973064814e-06 2.4295681214e-05 6.3503743149e-05 6.4942464633e-06
          4.2686378947e-06 7.316537085e-05 5.1655010793e-06 3.6831657781e-05 6.9515597716e-05 2.6192662972e-06
          4.0732084017e-06 7.3330869782e-05 4.5128936108e-06 2.8813583413e-05 7.3654759035e-05 6.6558300205e-06
          4.8443584092e-05 8.4136467194e-05 8.9932007086e-07 4.9475722335e-05 8.4645806055e-05 6.7165200335e-07
          3.8396392483e-05 8.4586383309e-05 1.4124453855e-06 9.1357660494e-06 8.3829378127e-05 1.8201556031e-06
          4.8873178457e-05 8.4355116996e-05 1.6921347878e-06 4.9562728236e-05 8.5036212113e-05 1.6360822883e-06
          5.2090917961e-06 7.7871511166e-05 2.1900195861e-06 3.9386632125e-05 8.4581923147e-05 2.8344259135e-06
          7.6328406067e-06 8.6430030933e-05 2.8544288853e-06 5.9712992879e-06 8.0564524978e-05 3.5170060073e-06
          4.2646068323e-05 7.7110380516e-05 4.1022140067e-06 8.5924666564e-06 8.4165527369e-05 3.553577244e-06
          6.9821389843e-06 8.6896274297e-05 3.5892362575e-06 4.001439811e-05 9.1279973276e-05 3.884790658e-06
          3.842274964e-05 9.1905429144e-05 3.6409012409e-06 3.9123733586e-05 8.4643666924e-05 4.4499629439e-06
          2.4984763513e-05 8.9333509095e-05 4.4703319872e-06 6.7358955675e-06 8.7075401098e-05 4.6601021495e-06
          8.4617840912e-06 8.6365464085e-05 4.4150315262e-06 4.559264562e-05 7.7956530731e-05 5.3132762332e-06
          4.6193519665e-05 7.9605502833e-05 5.5023697314e-06 2.8780146749e-05 7.4854244303e-05 5.5775758483e-06
          2.9909058867e-05 7.4364506872e-05 6.1289438236e-06 4.7707693739e-05 7.7286771557e-05 5.9189433159e-06
          2.5434706913e-05 8.9681547252e-05 6.1420064412e-06 1.1927368178e-05 7.6054857345e-05 6.9522311605e-06
          4.770605301e-05 9.556360601e-05 6.6200182118e-06 2.9256050766e-05 7.4005431088e-05 7.4009881246e-06
          1.2486977539e-05 7.4505420343e-05 7.7892254922e-06 4.8044068535e-05 7.767626812e-05 7.6174947026e-06
          4.7693694796e-05 9.4617040304e-05 8.2533770183e-06 7.595912848e-06 8.6723186541e-05 4.5305041567e-06
          5.1300257837e-06 7.9045079474e-05 3.2738787468e-06 4.9257989303e-05 8.4134328063e-05 2.4590428893e-06
          8.5066767497e-06 8.6889202066e-05 5.1371425798e-06 4.6946821385e-05 7.6084339526e-05 6.5757103584e-06
          4.9032172683e-05 8.3703445853e-05 4.4097401997e-07 2.8961418138e-05 7.444757648e-05 6.3179859353e-06
          4.3890868255e-05 7.6329197327e-05 3.565003226e-06 6.8316198849e-06 8.6241110694e-05 2.6604534469e-06
          2.9497197829e-05 7.4753996159e-05 7.6900623753e-06 6.343426503e-05 1.4935771105e-05 2.3025422706e-06
          5.6788383517e-05 2.3413775125e-05 1.9247577256e-06 5.0784350606e-05 1.3390329514e-05 2.5151116461e-06
          6.3980034611e-05 1.3424652934e-05 3.1188365028e-06 5.8764242567e-05 5.3865041991e-06 4.3669160732e-06
          5.1131508371e-05 1.2849651284e-05 4.2865244723e-06 5.1384609833e-05 1.3694599147e-05 4.0588893171e-06
          8.0120895291e-05 1.8887323677e-05 4.230696959e-06 9.3606169685e-05 8.0927147792e-06 4.8542983677e-06
          9.2972979473e-05 1.6022555428e-05 4.7324588195e-06 8.7200380221e-05 3.3955916479e-06 5.9183498706e-06
          5.4427135183e-05 1.6983873138e-05 5.5283117035e-06 8.041516412e-05 1.8125121642e-05 5.9309782046e-06
          5.8243997046e-05 5.7083966567e-06 6.0267898334e-06 7.165846182e-05 1.2401957065e-05 6.2562194216e-06
          7.0178655733e-05 1.2983458873e-05 6.0294673858e-06 9.3020360509e-05 1.6045854863e-05 6.3582647272e-06
          9.3588714662e-05 1.772280666e-05 6.1970781644e-06 8.0976038589e-05 1.9664330466e-05 6.1074842961e-06
          9.3554335763e-05 6.5239346441e-06 6.0594306888e-06 5.5136431911e-05 1.7965694497e-05 6.8631247814e-06
          8.761906065e-05 3.7194427023e-06 7.4738636613e-06 9.3100003141e-05 2.3900000087e-05 7.4300000961e-06
          5.0352286053e-05 1.3227987438e-05 3.3483497646e-06 9.3635026133e-05 7.7659215094e-06 7.0043961387e-06
          5.6027081882e-05 2.2210662792e-05 2.581894023e-06 5.0297137932e-05 1.304342095e-05 4.2184797167e-06
          5.3208732425e-05 4.8695706937e-05 1.361108275e-06 5.7233064581e-05 3.8487876736e-05 2.4781732009e-06
          5.2650102589e-05 4.8537771363e-05 2.1948378617e-06 5.374236207e-05 4.8918092943e-05 2.5014066978e-06
          5.3561951063e-05 4.8122627049e-05 3.1515396586e-06 5.779037383e-05 3.8513186155e-05 4.1939929361e-06
          7.2800001362e-05 4.9700000091e-05 5.4199999795e-06 8.7424523372e-05 4.9615540775e-05 5.6191747717e-06
          8.8337226771e-05 2.5151715818e-05 7.7839695223e-06 8.8844899437e-05 2.6597375836e-05 8.3752092905e-06
          5.2644038078e-05 4.8342728405e-05 3.1693389246e-06 5.3836451116e-05 4.911293945e-05 3.3462740703e-06
          7.3876108218e-05 7.3243783845e-05 8.4888296215e-07 5.2114628488e-05 5.331250577e-05 1.8172069076e-06
          7.3952971434e-05 7.3423063441e-05 1.8394558765e-06 9.2458845756e-05 5.3527764976e-05 1.9879826141e-06
          5.2920870075e-05 5.3920270148e-05 3.290313316e-06 9.3104747066e-05 5.4421838286e-05 3.2035011372e-06
          7.9445482697e-05 7.0109752414e-05 3.4674931157e-06 7.4399998994e-05 7.1700000262e-05 3.7800000428e-06
          5.2786541346e-05 5.2917566791e-05 4.6375434977e-06 7.6936776168e-05 5.5680578953e-05 5.2154641708e-06
          7.9157209257e-05 6.9874586188e-05 4.4864436859e-06 7.4818060966e-05 5.7479774114e-05 4.6078412197e-06
          7.5944277341e-05 5.7686003856e-05 5.1995621106e-06 8.7957574578e-05 5.1133480156e-05 6.239976301e-06
          7.6176518633e-05 5.7440647652e-05 6.0823781496e-06 7.57000671e-05 5.7946952438e-05 6.6569082264e-06
          8.0134283053e-05 6.6655040428e-05 6.4225027927e-06 7.9267796536e-05 7.0757894719e-05 4.1681473704e-06
          7.8939818195e-05 7.0452682849e-05 5.199496627e-06 7.481371722e-05 7.3850751505e-05 9.6654162007e-07
          7.6530770457e-05 5.6953456806e-05 4.3420645852e-06 7.5263087638e-05 5.7493773056e-05 5.9709495872e-06
          7.7033299021e-05 5.7285295043e-05 6.1675073084e-06 7.967394049e-05 6.693987234e-05 7.8912644312e-06
          7.5076670328e-05 5.7490549807e-05 5.393741958e-06 7.4510324339e-05 7.4256167863e-05 1.7566374027e-06
          7.4333620432e-05 8.6237538198e-05 1.4115870499e-06 5.0700000429e-05 7.5800002378e-05 1.5699999949e-06
          7.4880706961e-05 8.4722771135e-05 2.2298513613e-06 9.7770614957e-05 8.7609325419e-05 2.0976801807e-06
          9.762384434e-05 8.8325599791e-05 2.7653684356e-06 9.6978212241e-05 8.7169828475e-05 2.9611476293e-06
          9.7495663795e-05 8.7666725449e-05 4.0115087359e-06 8.2209917309e-05 8.9103479695e-05 3.779086228e-06
          7.2540809924e-05 9.3708891654e-05 4.6535151341e-06 8.341010107e-05 8.8904736913e-05 5.0835560614e-06
          7.0550951932e-05 8.8288776169e-05 5.278673143e-06 8.5430699983e-05 7.80429109e-05 6.0882111939e-06
          8.6524079961e-05 7.7870259702e-05 6.6772972787e-06 8.7167776655e-05 7.8661367297e-05 5.7983629631e-06
          7.1554866736e-05 9.1116526164e-05 6.1926639319e-06 8.6691230536e-05 7.8798642789e-05 6.8224785537e-06
          8.2641461631e-05 8.9271437901e-05 6.5081972025e-06 7.5318981544e-05 9.397258691e-05 6.4929718064e-06
          5.4497428209e-05 9.5179260825e-05 6.7468954512e-06 5.3201438277e-05 9.5559313195e-05 6.6528905336e-06
          6.4105923229e-05 8.9854009275e-05 7.3865799095e-06 5.3677555115e-05 9.5908624644e-05 7.4741574281e-06
          5.4615728004e-05 9.5732691989e-05 7.5339485193e-06 9.1666253866e-05 8.3611972514e-05 8.6116433522e-06
          9.1979884019e-05 8.4867344412e-05 7.7203512774e-06 9.2925016361e-05 8.4576422523e-05 7.5824950727e-06
          7.6044554589e-05 9.4976930995e-05 7.8584052972e-06 9.3549526355e-05 8.4480234364e-05 8.6602931333e-06
          6.4093823312e-05 8.8926615717e-05 8.9868526629e-06 9.3290800578e-05 8.4564882854e-05 9.5350642368e-06
          9.1332629381e-05 8.3344857558e-05 7.0662085818e-06 8.553043881e-05 7.7534103184e-05 6.8057361204e-06
          9.2599228083e-05 8.5101593868e-05 9.2884274636e-06 7.1092974395e-05 8.9760033006e-05 5.3158028095e-06
          9.2710091849e-05 8.4317929577e-05 8.4522762336e-06 7.1096343163e-05 9.4276510936e-05 4.432177775e-06
          5.007908112e-05 8.4178551333e-05 1.0073498515e-06 9.721834067e-05 8.7915235781e-05 3.2490038393e-06
          8.6365704192e-05 7.7211872849e-05 6.1848386395e-06 8.6800850113e-05 7.7994860476e-05 6.1329092205e-06
        </DataArray>
      </Points>
      <Cells>
        <DataArray type="Int64" Name="connectivity" format="ascii" RangeMin="0" RangeMax="233">
          0 1 2 3 4 5
          6 7 8 9 10 11
          12 13 14 15 16 17
          18 19 20 21 22 23
          24 25 26 27 28 29
          30 31 32 33 34 35
          36 37 38 39 40 41
          42 43 44 45 46 47
          48 49 50 51 52 53
          54 55 56 57 58 59
          60 61 62 63 64 65
          66 67 68 69 70 71
          72 73 74 75 76 77
          78 79 80 81 82 83
          84 85 86 87 88 89
          90 91 92 93 94 95
          96 97 98 99 100 101
          102 103 104 105 106 107
          108 109 110 111 112 113
          114 115 116 117 118 119
          120 121 122 123 124 125
          126 127 128 129 130 131
          132 133 134 135 136 137
          138 139 140 141 142 143
          144 145 146 147 148 149
          150 151 152 153 154 155
          156 157 158 159 160 161
          162 163 164 165 166 167
          168 169 170 171 172 173
          174 175 176 177 178 179
          180 181 182 183 184 185
          186 187 188 189 190 191
          192 193 194 195 196 197
          198 199 200 201 202 203
          204 205 206 207 208 209
          210 211 212 213 214 215
          216 217 218 219 220 221
          222 223 224 225 226 227
          228 229 230 231 232 233
        </DataArray>
        <DataArray type="Int64" Name="offsets" format="ascii" RangeMin="1" RangeMax="234">
          1 2 3 4 5 6
          7 8 9 10 11 12
          13 14 15 16 17 18
          19 20 21 22 23 24
          25 26 27 28 29 30
          31 32 33 34 35 36
          37 38 39 40 41 42
          43 44 45 46 47 48
          49 50 51 52 53 54
          55 56 57 58 59 60
          61 62 63 64 65 66
          67 68 69 70 71 72
          73 74 75 76 77 78
          79 80 81 82 83 84
          85 86 87 88 89 90
          91 92 93 94 95 96
          97 98 99 100 101 102
          103 104 105 106 107 108
          109 110 111 112 113 114
          115 116 117 118 119 120
          121 122 123 124 125 126
          127 128 129 130 131 132
          133 134 135 136 137 138
          139 140 141 142 143 144
          145 146 147 148 149 150
          151 152 153 154 155 156
          157 158 159 160 161 162
          163 164 165 166 167 168
          169 170 171 172 173 174
          175 176 177 178 179 180
          181 182 183 184 185 186
          187 188 189 190 191 192
          193 194 195 196 197 198
          199 200 201 202 203 204
          205 206 207 208 209 210
          211 212 213 214 215 216
          217 218 219 220 221 222
          223 224 225 226 227 228
          229 230 231 232 233 234
        </DataArray>
        <DataArray type="UInt8" Name="types" format="ascii" RangeMin="1" RangeMax="1">
          1 1 1 1 1 1
          1 1 1 1 1 1
          1 1 1 1 1 1
          1 1 1 1 1 1
          1 1 1 1 1 1
          1 1 1 1 1 1
          1 1 1 1 1 1
          1 1 1 1 1 1
          1 1 1 1 1 1
          1 1 1 1 1 1
          1 1 1 1 1 1
          1 1 1 1 1 1
          1 1 1 1 1 1
          1 1 1 1 1 1
          1 1 1 1 1 1
          1 1 1 1 1 1
          1 1 1 1 1 1
          1 1 1 1 1 1
          1 1 1 1 1 1
          1 1 1 1 1 1
          1 1 1 1 1 1
          1 1 1 1 1 1
          1 1 1 1 1 1
          1 1 1 1 1 1
          1 1 1 1 1 1
          1 1 1 1 1 1
          1 1 1 1 1 1
          1 1 1 1 1 1
          1 1 1 1 1 1
          1 1 1 1 1 1
          1 1 1 1 1 1
          1 1 1 1 1 1
          1 1 1 1 1 1
          1 1 1 1 1 1
          1 1 1 1 1 1
          1 1 1 1 1 1
          1 1 1 1 1 1
          1 1 1 1 1 1
          1 1 1 1 1 1
        </DataArray>
      </Cells>
    </Piece>
  </UnstructuredGrid>
</VTKFile>
