<?xml version="1.0"?>
<VTKFile type="UnstructuredGrid" version="0.1" byte_order="LittleEndian" header_type="UInt32" compressor="vtkZLibDataCompressor">
  <UnstructuredGrid>
    <Piece NumberOfPoints="340" NumberOfCells="340">
      <PointData>
        <DataArray type="Int32" Name="id" format="ascii" RangeMin="1" RangeMax="340">
          133 206 75 19 134 174
          244 59 50 123 241 97
          49 42 118 131 15 44
          22 3 196 264 276 298
          308 324 203 93 40 1
          245 78 150 256 175 54
          117 176 124 24 7 257
          215 109 119 20 207 62
          154 246 106 225 84 141
          220 258 198 208 161 137
          166 188 61 266 267 277
          286 299 309 310 311 329
          209 121 77 32 177 148
          226 235 51 85 60 105
          186 227 81 259 151 167
          129 67 221 155 18 92
          288 192 160 216 145 135
          14 82 57 189 228 26
          158 113 89 12 268 269
          275 237 283 287 300 312
          313 314 315 325 330 210
          111 222 37 247 34 142
          90 156 199 168 229 79
          187 236 217 46 101 157
          2 126 35 86 69 182
          115 136 48 200 72 149
          39 120 278 211 13 99
          204 30 23 230 96 95
          242 270 271 289 181 301
          304 316 317 331 332 333
          43 127 110 218 190 56
          73 33 159 223 248 6
          38 179 146 47 87 116
          91 17 173 88 41 169
          102 58 197 243 265 279
          280 305 306 318 107 238
          162 11 66 249 191 138
          212 103 45 130 10 152
          36 272 284 290 319 334
          250 185 125 55 25 163
          239 80 147 74 260 5
          193 108 132 183 140 4
          231 164 261 184 9 195
          76 213 52 139 224 273
          285 291 292 293 294 302
          320 326 335 336 64 104
          68 21 29 251 65 122
          262 170 232 28 178 219
          8 94 83 205 63 255
          233 234 114 53 201 144
          263 165 153 252 70 171
          253 194 240 31 27 128
          172 100 254 180 112 16
          214 71 202 98 143 274
          282 281 295 296 297 303
          307 321 322 323 327 328
          337 338 339 340
        </DataArray>
        <DataArray type="Int32" Name="type" format="ascii" RangeMin="1" RangeMax="2">
          2 2 2 1 1 2
          2 1 1 1 1 1
          1 1 1 1 1 1
          1 1 1 1 2 2
          2 1 1 1 1 1
          2 2 1 2 2 1
          1 2 2 1 1 2
          1 2 1 1 2 2
          2 2 2 2 1 2
          2 2 2 2 2 2
          1 2 2 2 2 2
          2 2 2 2 2 2
          2 2 2 1 2 2
          2 2 1 1 1 2
          1 2 1 2 1 1
          1 2 2 2 1 1
          2 1 1 1 1 2
          1 1 1 2 2 1
          2 2 1 1 2 2
          1 2 1 2 2 2
          2 2 2 1 2 2
          2 2 1 2 1 2
          1 2 2 1 2 2
          1 2 1 1 1 2
          1 1 1 1 2 2
          1 2 1 2 2 2
          1 1 2 2 1 1
          1 1 1 2 1 1
          1 2 2 2 2 2
          1 2 2 2 2 2
          1 2 1 1 2 1
          2 1 2 2 2 1
          1 1 1 1 1 1
          1 1 1 1 1 1
          1 1 1 1 1 2
          2 1 1 2 2 2
          2 1 2 2 2 2
          2 1 1 1 1 1
          1 2 1 2 2 2
          2 2 2 1 1 2
          2 1 1 2 2 1
          1 2 2 2 1 1
          2 2 2 2 1 2
          2 2 1 2 1 2
          1 2 2 2 2 2
          2 1 2 2 2 1
          2 1 1 2 2 2
          2 2 2 1 2 1
          1 1 1 1 2 1
          2 2 2 1 2 2
          2 2 1 2 2 2
          2 1 2 1 1 2
          2 1 2 2 2 1
          2 2 2 1 2 2
          2 2 2 2 2 2
          1 2 2 2 1 1
          2 2 2 2
        </DataArray>
        <DataArray type="Float64" Name="diameter" format="ascii" RangeMin="7.9557576871e-07" RangeMax="1.9635158745e-06">
          9.1663330274e-07 9.0884749062e-07 9.386803828e-07 1.7847431406e-06 1.7317247797e-06 9.9772691656e-07
          1.0464932803e-06 1.8517942436e-06 1.8396297153e-06 1.8748375513e-06 1.5369542141e-06 1.6946576651e-06
          1.8981168668e-06 1.6086427381e-06 1.9186535813e-06 1.685751389e-06 1.7816727345e-06 1.6855758791e-06
          1.9085923564e-06 1.6425280421e-06 1.6264228683e-06 1.5593874117e-06 9.6636832456e-07 8.6566089264e-07
          8.5510048332e-07 1.527967181e-06 1.5640955659e-06 1.7245839154e-06 1.9283986889e-06 1.8166135932e-06
          1.0265895849e-06 1.0045790394e-06 1.6683690243e-06 9.2353091965e-07 9.7983217625e-07 1.9556355366e-06
          1.9083168293e-06 1.0383191932e-06 1.0098318389e-06 1.7723262144e-06 1.6872226448e-06 9.6079247759e-07
          1.6018196839e-06 8.9113484793e-07 1.7368347467e-06 1.9552464644e-06 1.037252613e-06 1.0316458921e-06
          1.0080879889e-06 1.0189496849e-06 8.3446591335e-07 1.0083433837e-06 1.740116142e-06 9.507699534e-07
          8.8814772105e-07 9.5643986295e-07 1.0563439711e-06 8.5975854513e-07 1.018654572e-06 9.0331456345e-07
          1.6790491235e-06 9.305247288e-07 8.7341378192e-07 9.6880801278e-07 9.6397639323e-07 9.9373736266e-07
          9.5340744949e-07 8.5676934285e-07 8.7561501068e-07 8.9409946219e-07 8.9244118748e-07 8.9358718905e-07
          8.7595938176e-07 8.7732058413e-07 9.9265230732e-07 1.6183616742e-06 9.6437723306e-07 8.2882909212e-07
          9.7483868042e-07 8.8211431947e-07 1.5530631796e-06 1.6271622876e-06 1.8408262168e-06 8.5586097988e-07
          1.7184810274e-06 9.9640427642e-07 1.7719053541e-06 9.4550626891e-07 1.6822159685e-06 1.677443734e-06
          1.7762249082e-06 1.0219560332e-06 1.0579138027e-06 9.1795176785e-07 1.7005942368e-06 1.9534700298e-06
          9.0391426411e-07 1.6328821426e-06 1.6712829743e-06 1.5596406981e-06 1.6443463854e-06 9.6163733241e-07
          1.7595254723e-06 1.7431956789e-06 1.5544867122e-06 9.50050531e-07 1.0528571783e-06 1.7261090289e-06
          1.0589701697e-06 1.0522378083e-06 1.9207347774e-06 1.813069098e-06 9.8552667588e-07 9.7154498652e-07
          1.5680863051e-06 1.0098855081e-06 1.621690602e-06 8.6974756696e-07 8.6176562351e-07 8.6630279759e-07
          8.8956388876e-07 9.1251111029e-07 9.1541022384e-07 1.5832505078e-06 8.1218860377e-07 8.8690374872e-07
          8.6719566972e-07 1.0375399667e-06 1.9552463607e-06 9.8408620295e-07 1.9517193219e-06 9.684431659e-07
          1.6281857517e-06 1.0483905795e-06 1.06291471e-06 1.676636148e-06 8.4815783e-07 1.056906148e-06
          1.7195619185e-06 9.621217566e-07 1.5582658988e-06 1.9598399418e-06 1.8832263973e-06 8.2820949397e-07
          1.865578643e-06 1.7720174133e-06 1.7245874954e-06 1.7423564468e-06 9.0449118893e-07 8.8640905668e-07
          1.7787898351e-06 9.6812572207e-07 1.8995221283e-06 8.9678562663e-07 1.055348522e-06 1.0618602969e-06
          1.6854988703e-06 1.8033731142e-06 9.9569087991e-07 9.3765583692e-07 1.9613074847e-06 1.8689956535e-06
          1.6183878276e-06 1.9440952544e-06 1.5418228332e-06 1.0630447966e-06 1.8492181329e-06 1.6460870913e-06
          1.5949504198e-06 9.5776703965e-07 9.8163624302e-07 9.4823861509e-07 9.7743795602e-07 8.6332731279e-07
          1.6084792356e-06 8.7438859213e-07 9.0191176177e-07 8.6664878794e-07 8.8688750712e-07 7.9557576871e-07
          1.6783642518e-06 9.7414123771e-07 1.826758447e-06 1.6115372814e-06 9.6586695766e-07 1.9405849829e-06
          9.9805813632e-07 1.9073621138e-06 1.0607652449e-06 9.0084622749e-07 1.027598245e-06 1.955246376e-06
          1.5427043066e-06 1.6598789005e-06 1.6443464252e-06 1.6319205348e-06 1.7533513439e-06 1.8404258147e-06
          1.6099436625e-06 1.7426962786e-06 1.6552977594e-06 1.7249423249e-06 1.5568862288e-06 1.6646011453e-06
          1.7981347897e-06 1.8130691413e-06 1.7002960636e-06 1.5376266734e-06 1.5812239531e-06 9.2001772301e-07
          9.0874795919e-07 1.6093988155e-06 1.5871478695e-06 8.6430742301e-07 1.0551833729e-06 9.9655713825e-07
          1.046184793e-06 1.8207585973e-06 9.1078650517e-07 9.8436846067e-07 9.7553037984e-07 9.1249266651e-07
          9.0879895641e-07 1.5523542254e-06 1.9635158745e-06 1.8735088338e-06 1.7017453424e-06 1.7832192899e-06
          1.6559076682e-06 9.3596234622e-07 1.6307175686e-06 9.1080933627e-07 8.5617290249e-07 7.9763405163e-07
          1.0008136132e-06 9.420742596e-07 1.0070996133e-06 1.6667109185e-06 1.8290944154e-06 8.3442443221e-07
          9.7156977319e-07 1.7111176756e-06 1.6244513182e-06 9.4838675052e-07 1.0217621288e-06 1.6090070507e-06
          1.6155725409e-06 8.3909961984e-07 9.5748487455e-07 9.7910653744e-07 1.7974954559e-06 1.7162399471e-06
          9.7475851078e-07 1.0273587572e-06 9.5002741547e-07 9.5096904792e-07 1.7397510523e-06 9.510538022e-07
          9.0064732126e-07 8.8810446558e-07 1.6633972487e-06 9.2916567234e-07 1.6050225614e-06 9.7871127502e-07
          1.5116081798e-06 8.7080505175e-07 9.047881761e-07 8.9286659723e-07 9.1904511222e-07 9.1321615837e-07
          9.2370589016e-07 1.5275631653e-06 8.9270070654e-07 8.1770946962e-07 9.3563894143e-07 1.8584362871e-06
          9.4306504845e-07 1.8948614181e-06 1.5981227252e-06 1.0084093191e-06 1.0191846705e-06 1.0390397944e-06
          9.3194800961e-07 1.0121844612e-06 1.0496586188e-06 1.6435502371e-06 8.8248116584e-07 1.6022433084e-06
          1.6868405835e-06 1.6899059825e-06 1.7585299998e-06 1.6043671967e-06 8.4108532092e-07 1.5844524529e-06
          9.9090251628e-07 1.0188571192e-06 8.3467279951e-07 1.9283987058e-06 9.7172840344e-07 8.2372070783e-07
          9.7676550362e-07 9.9074598478e-07 1.6968167716e-06 1.0249926531e-06 1.0108854063e-06 9.6259386006e-07
          1.0596520334e-06 1.5822956378e-06 9.9287943464e-07 1.8909779097e-06 1.6465593536e-06 9.7974711301e-07
          9.462617525e-07 1.8083514475e-06 1.0481682355e-06 8.5473606407e-07 1.0581463446e-06 1.7446514641e-06
          9.1928422589e-07 8.8261563497e-07 8.7855447047e-07 1.532459785e-06 9.4373089976e-07 9.8386869247e-07
          9.6377289562e-07 9.5211210796e-07 9.4478372864e-07 8.6206061804e-07 9.0981231392e-07 9.5528967297e-07
          1.6184636772e-06 8.3697285275e-07 9.3743473305e-07 8.3149737321e-07 1.534490706e-06 1.4850439833e-06
          8.5912753582e-07 8.7446728911e-07 8.3306016989e-07 8.3584071279e-07
        </DataArray>
      </PointData>
      <CellData>
      </CellData>
      <Points>
        <DataArray type="Float32" Name="Points" NumberOfComponents="3" format="ascii" RangeMin="9.7635858595e-06" RangeMax="0.00013197129178">
          1.9226545191e-05 2.3561984563e-05 4.480883149e-07 1.8749269657e-05 2.2861149773e-05 7.7283584687e-07
          2.0410127036e-05 2.3779310141e-05 1.1244633242e-06 4.9557947932e-06 8.5739129645e-06 1.9139974938e-06
          1.2839348528e-05 1.7021688109e-05 1.7501497496e-06 2.022573608e-05 2.2870950488e-05 1.7832019239e-06
          1.9285291273e-05 2.3081991458e-05 1.9642302505e-06 4.0633112803e-05 1.5515863197e-05 2.2088886453e-06
          1.3375006347e-05 1.5538567823e-05 2.551319767e-06 4.9439522627e-06 7.6667147368e-06 3.4794295516e-06
          4.1245140892e-05 1.5162907403e-05 3.7602819702e-06 4.1564482672e-05 1.5726389393e-05 5.2234076975e-06
          3.1427814974e-05 8.1648131527e-06 5.4795891629e-06 1.7941234546e-05 5.4087258832e-06 6.2835802055e-06
          1.4760255453e-06 9.2628743005e-06 6.2776357481e-06 3.2135827496e-05 9.144860087e-06 6.8119902608e-06
          2.0460761334e-06 1.0886157725e-05 6.9415200414e-06 2.5845774871e-05 1.6647931261e-05 6.5758426899e-06
          1.4600000213e-05 8.9300001491e-06 7.4399999903e-06 4.612021803e-05 1.0832196494e-05 7.861953236e-06
          2.5362436645e-05 1.6946987671e-05 8.1179559857e-06 4.6665962145e-05 1.2329885067e-05 8.0336985775e-06
          2.031137592e-05 2.3921333195e-05 2.0410723209e-06 2.0075123757e-05 2.336954276e-05 4.1986223209e-07
          1.8572789486e-05 2.3394719392e-05 1.4362683487e-06 1.6495938326e-05 5.9766662162e-06 6.0621159719e-06
          1.3710221538e-05 3.8497411879e-05 9.1739144636e-07 1.4084533177e-05 3.8632329961e-05 2.4982073228e-06
          1.4506871594e-05 4.0402086597e-05 2.2926642487e-06 2.9405919122e-05 4.0653358155e-05 3.4876968584e-06
          4.5404474804e-05 4.0763821744e-05 3.6312471821e-06 4.6325290896e-05 4.1019618948e-05 3.8978614612e-06
          3.9046244638e-05 3.9102596929e-05 4.9904620028e-06 4.5024844439e-05 4.039777923e-05 4.5708925427e-06
          4.6133427531e-05 4.1884915845e-05 4.5507235882e-06 3.1019608286e-05 4.8773454182e-05 4.8341480579e-06
          2.9393828299e-05 3.9727296098e-05 5.0856792768e-06 4.4999076636e-05 4.1099086957e-05 5.2139321269e-06
          4.5966466132e-05 4.1538653022e-05 5.4607021411e-06 3.9568058128e-05 3.765780275e-05 5.7709294197e-06
          1.721263834e-05 3.9811391616e-05 5.5195678215e-06 4.5628119551e-05 4.0738574171e-05 5.875462648e-06
          1.7773505533e-05 4.1350580432e-05 5.6960716392e-06 4.6504515012e-06 3.2663847378e-05 5.853833045e-06
          3.1743995351e-05 4.9776164815e-05 6.1973605625e-06 4.6366981223e-06 2.9522878322e-05 6.8848789851e-06
          4.7084959078e-06 3.2950280001e-05 6.7513346949e-06 4.8246438382e-06 3.3964748582e-05 6.6819588938e-06
          5.7725314946e-06 3.2954718336e-05 6.9925076787e-06 6.290750207e-06 3.3838852687e-05 7.2217776506e-06
          3.7128651456e-05 3.9787402784e-05 7.3225646702e-06 3.6530847865e-05 3.9903508878e-05 6.9181064646e-06
          6.1313853621e-06 2.9188850021e-05 7.9049332271e-06 4.2166088861e-06 3.2826912502e-05 7.8112725532e-06
          5.4857396208e-06 3.3831234759e-05 7.6860442277e-06 3.7061636249e-05 4.0608974814e-05 7.2697994256e-06
          4.9706927712e-06 3.273106995e-05 8.4366793089e-06 3.8443940866e-05 3.9789665607e-05 8.1267917267e-06
          3.6852918129e-05 4.0543527575e-05 8.203726793e-06 3.5237917473e-05 4.0634691686e-05 9.0438152256e-06
          5.1003385124e-06 2.9701435778e-05 9.1666188382e-06 3.6899913539e-05 4.0388542402e-05 9.427155419e-06
          3.8089699956e-05 4.015572631e-05 8.8094611783e-06 4.5314704039e-05 4.1440263885e-05 4.3479212763e-06
          3.9659380491e-06 3.2092098991e-05 7.2958769124e-06 3.6155441194e-05 4.0670915041e-05 8.908044947e-06
          4.4877169785e-06 3.1793468224e-05 6.099095117e-06 3.7139350752e-05 3.9678423491e-05 8.9633413154e-06
          4.6881768867e-06 3.3550066291e-05 7.5253474279e-06 3.7605521356e-05 4.0003153117e-05 8.1255066107e-06
          3.802444553e-05 4.060009087e-05 9.5670475275e-06 3.7504356442e-05 3.9037800889e-05 7.4435188253e-06
          3.5758213926e-05 6.9940462708e-05 1.7343739955e-06 3.6708854168e-05 6.9736459409e-05 1.8348639514e-06
          3.6424502468e-05 7.0863759902e-05 1.8457468514e-06 3.5901612137e-05 7.2352086136e-05 1.4443522787e-06
          3.8135538489e-05 7.0567679359e-05 2.3955062716e-06 3.532876508e-05 6.9656496635e-05 2.7558244255e-06
          3.7011574022e-05 6.9451460149e-05 2.7436819892e-06 3.6467961763e-05 7.0860609412e-05 2.9837924558e-06
          3.2997684229e-06 5.7197710703e-05 2.51696747e-06 3.4956294257e-05 7.0739108196e-05 3.1738211419e-06
          1.5969684682e-05 6.7333137849e-05 3.6295564314e-06 4.0928848648e-06 7.3104471085e-05 3.5830025809e-06
          3.5349752579e-05 7.2008202551e-05 4.1937532842e-06 4.1068192331e-06 7.3598064773e-05 4.3560571612e-06
          4.0215290937e-06 5.6487075199e-05 4.8473302741e-06 5.0212374845e-06 7.3538380093e-05 4.587442163e-06
          4.6101254156e-06 5.8102363255e-05 5.0325606935e-06 9.2217205747e-06 6.7021770519e-05 5.0614989959e-06
          1.5438539776e-05 6.7661771027e-05 5.3241988098e-06 5.5411037465e-06 7.2936993092e-05 5.1325810091e-06
          4.1894722926e-06 7.2979935794e-05 5.1893966884e-06 3.1613153624e-06 7.3584131314e-05 5.6968560784e-06
          1.0077315892e-05 5.4743697547e-05 5.5484151744e-06 2.3116723241e-05 6.551786646e-05 5.8561249716e-06
          4.0111854105e-06 7.3202660133e-05 6.8860799729e-06 9.2781292551e-06 5.3480711358e-05 6.2382532633e-06
          5.8230607465e-06 6.2778774009e-05 6.4153186941e-06 2.4295710318e-05 6.3504056016e-05 6.4939390541e-06
          4.9201867114e-06 7.0337708166e-05 6.2204821916e-06 4.5248852985e-06 7.2317554441e-05 5.839498499e-06
          7.4069598668e-06 6.2146827986e-05 6.6487436925e-06 9.2600976132e-06 6.7012842919e-05 6.7695050348e-06
          9.759391105e-06 6.8718654802e-05 5.8040177464e-06 4.3862901293e-06 7.3947026976e-05 6.5462486418e-06
          2.8810463846e-05 7.3443858128e-05 6.6327670538e-06 2.2972752049e-05 6.4234001911e-05 7.1551367e-06
          2.836162821e-05 7.3992872785e-05 7.3887690633e-06 2.9403134249e-05 7.3879498814e-05 7.360186828e-06
          7.3231094575e-06 6.3490610046e-05 7.9109368016e-06 5.3592498261e-06 7.067732804e-05 7.851731425e-06
          3.7278514355e-05 7.0429618063e-05 1.9645735847e-06 4.8823794714e-06 7.3114875704e-05 6.2355170485e-06
          3.4728782339e-05 7.2196526162e-05 2.5262395411e-06 2.9839491617e-05 7.3894385423e-05 6.3340467022e-06
          9.9480157587e-06 6.8805442424e-05 7.3558417171e-06 4.8413071454e-06 7.3601368058e-05 5.4705087678e-06
          3.3515655105e-06 7.3471841461e-05 4.8438287195e-06 3.5072687751e-05 6.9464622356e-05 1.6422441149e-06
          3.6233155697e-05 6.9045629061e-05 1.5779089608e-06 3.6139819713e-05 6.9707115472e-05 2.5059468953e-06
          3.9348833525e-06 7.2292466939e-05 3.8183102333e-06 4.1901635086e-06 5.7378660131e-05 3.7954323489e-06
          3.6755154724e-05 7.0180365583e-05 2.6039278964e-06 4.9476697313e-05 8.3776823885e-05 4.8125417607e-07
          4.8604018957e-05 8.4213308583e-05 8.3878836676e-07 4.9304620916e-05 8.474731294e-05 5.0707438959e-07
          3.8372414565e-05 8.4586565208e-05 1.3804319678e-06 4.9828438932e-05 8.5088351625e-05 1.2980797237e-06
          9.1475294539e-06 8.3822094894e-05 1.7826237126e-06 4.9197380577e-05 8.4443025116e-05 1.6326733885e-06
          5.2116342886e-06 7.7842552855e-05 2.1625480713e-06 4.9448906793e-05 8.5251587734e-05 2.2101144168e-06
          4.9306847359e-05 8.4101156972e-05 2.5620674933e-06 3.9480361011e-05 8.4576924564e-05 2.8184128951e-06
          6.7247433435e-06 8.5985528131e-05 2.1509838461e-06 7.7067516031e-06 8.6449719674e-05 2.87761236e-06
          5.0826702136e-06 7.9029639892e-05 3.3191215607e-06 6.8882136475e-06 8.6481581093e-05 3.4630174923e-06
          4.3922689656e-05 7.6309232099e-05 3.5512700833e-06 5.9908375079e-06 8.0599063949e-05 3.5220225527e-06
          8.5807032519e-06 8.4172810602e-05 3.5911093619e-06 6.8400918281e-06 8.7792679551e-05 3.6986934902e-06
          4.0051250835e-05 9.126549412e-05 3.8904381654e-06 3.8385893276e-05 9.19199083e-05 3.6352537336e-06
          4.2614246922e-05 7.7130345744e-05 4.115946922e-06 3.9115649997e-05 8.4645245806e-05 4.4891103244e-06
          8.2547248894e-06 8.6157437181e-05 4.479260042e-06 7.6801552495e-06 8.7343607447e-05 4.4532775973e-06
          2.4974571716e-05 8.9325629233e-05 4.4324642658e-06 6.8684917096e-06 8.7486972916e-05 4.8788338063e-06
          4.5579032303e-05 7.7919161413e-05 5.3089916037e-06 8.59785996e-06 8.6642270617e-05 4.8348456403e-06
          2.8760550776e-05 7.4894021964e-05 5.4880483731e-06 3.013073183e-05 7.4775336543e-05 5.9238936956e-06
          4.772711327e-05 7.7317461546e-05 5.9021804191e-06 4.6207132982e-05 7.9642872151e-05 5.5066548157e-06
          9.1347201305e-06 8.627641364e-05 4.2108899834e-06 2.8772210499e-05 7.4965922977e-05 6.6679003794e-06
          2.5444898711e-05 8.968943439e-05 6.1798741626e-06 1.1915254618e-05 7.608839951e-05 6.9341126618e-06
          4.6927398216e-05 7.6053649536e-05 6.5924728005e-06 4.7661804274e-05 9.564262291e-05 6.5151298259e-06
          1.2406642782e-05 7.4429342931e-05 7.0467640398e-06 2.9516249924e-05 7.4845549534e-05 7.7251152106e-06
          4.8044068535e-05 7.767626812e-05 7.6174947026e-06 4.833753701e-05 9.4618611911e-05 7.8033490354e-06
          4.7091441957e-05 9.4533737865e-05 8.8148080977e-06 4.8354799219e-05 8.4053746832e-05 1.7769391434e-06
          6.4100213422e-06 8.6722211563e-05 4.5697088353e-06 7.4208796832e-06 8.6496707809e-05 4.622378583e-06
          5.0209873734e-06 7.433808787e-05 5.9490685089e-06 2.9007265766e-05 7.4259369285e-05 6.1948371695e-06
          1.2595537555e-05 7.4516254244e-05 8.6008058133e-06 4.8690169933e-05 8.341515786e-05 5.4229678881e-07
          4.7752946557e-05 8.4367093223e-05 8.606340316e-07 6.7857054091e-06 8.6366526375e-05 2.897628292e-06
          7.2128987085e-06 8.7048858404e-05 3.8187149585e-06 8.4283410615e-06 8.7152817287e-05 5.4661936701e-06
          5.6807803048e-05 2.3444465114e-05 1.9079950562e-06 5.0383816415e-05 1.3510149074e-05 2.3686384338e-06
          6.3422150561e-05 1.4969311451e-05 2.2844239993e-06 5.6007662351e-05 2.2179972802e-05 2.5986566925e-06
          5.0363254559e-05 1.2868310478e-05 3.0426460853e-06 6.399214908e-05 1.3391111679e-05 3.1369550015e-06
          5.133700688e-05 1.3603166735e-05 3.5769380702e-06 5.8776007791e-05 5.379225513e-06 4.3293839553e-06
          5.1210998208e-05 1.2808654901e-05 4.2922679313e-06 5.0302369345e-05 1.2774446986e-05 4.0184504542e-06
          5.1444545534e-05 1.3825872884e-05 4.542604529e-06 8.0120895291e-05 1.8887323677e-05 4.230696959e-06
          9.3499475042e-05 8.0372010416e-06 3.9931423998e-06 9.2972419225e-05 1.602233533e-05 4.7124681259e-06
          8.7190186605e-05 3.3877079204e-06 5.8804821492e-06 5.5016760598e-05 1.7052228941e-05 4.9623349696e-06
          8.0408353824e-05 1.8106438802e-05 5.9288358898e-06 5.8232231822e-05 5.7156753428e-06 6.0643219513e-06
          9.3552269391e-05 6.4921437115e-06 6.0352422224e-06 7.1695314546e-05 1.2387474271e-05 6.261866929e-06
          7.0141795732e-05 1.2997941667e-05 6.0238198785e-06 9.300999227e-05 1.601400254e-05 6.3788834268e-06
          9.3161615951e-05 1.7671125534e-05 5.5616733334e-06 8.0982848885e-05 1.9683015125e-05 6.1096270656e-06
          5.5144300859e-05 1.7976588424e-05 6.8779359026e-06 8.7629246991e-05 3.7273266571e-06 7.5117313827e-06
          9.3631490017e-05 7.7691311162e-06 7.1449944699e-06 9.3707414635e-05 2.3518814487e-05 7.1678614404e-06
          5.3839874454e-05 1.6896130546e-05 6.0479624153e-06 5.1279057516e-05 1.3373907677e-05 2.4111120638e-06
          5.0178172387e-05 1.3570811461e-05 3.5756834222e-06 9.3719056167e-05 8.1819071056e-06 5.5525811149e-06
          9.4049923064e-05 1.7851651137e-05 6.8371432462e-06 5.0094706239e-05 1.3231140656e-05 4.6963373279e-06
          5.2732961194e-05 4.8838661314e-05 1.2147448842e-06 5.3701456636e-05 4.8660607717e-05 1.3310395843e-06
          5.2613228036e-05 4.8098081606e-05 1.9408903427e-06 5.7150427892e-05 3.8438090996e-05 2.3050865821e-06
          5.3594198107e-05 4.8894085921e-05 1.9999076812e-06 5.241675899e-05 4.8887432058e-05 2.5219637791e-06
          5.2591123676e-05 4.8038593377e-05 2.9481007005e-06 5.3884334193e-05 4.8220546887e-05 3.5262053188e-06
          5.3425603255e-05 4.9301019317e-05 3.4069432786e-06 5.7892539189e-05 3.8973466872e-05 3.7035015339e-06
          7.2800001362e-05 4.9700000091e-05 5.4199999795e-06 8.7412154244e-05 4.9580328778e-05 5.6047747421e-06
          9.2429450888e-05 2.4320805096e-05 7.719385394e-06 8.8324857643e-05 2.511650564e-05 7.7695694927e-06
          8.8857261289e-05 2.6632584195e-05 8.3896102296e-06 5.2487859648e-05 4.8582187446e-05 3.7026823065e-06
          5.7791439758e-05 3.8062356907e-05 4.9938917073e-06 5.3496558394e-05 4.7963061661e-05 2.7699311431e-06
          5.4238276789e-05 4.9074220442e-05 3.4341562696e-06 5.3855950682e-05 4.8904992582e-05 2.7953747122e-06
          7.401673065e-05 7.3078823334e-05 4.9327627494e-07 7.4830611993e-05 7.3407914897e-05 8.0738658426e-07
          7.3527953646e-05 7.3635594163e-05 1.1101338941e-06 5.2115061408e-05 5.331493594e-05 2.3985949156e-06
          9.2443100584e-05 5.3505977121e-05 1.9583603716e-06 7.407956582e-05 7.3377683293e-05 1.651070761e-06
          7.3962182796e-05 7.3770563176e-05 2.3415609576e-06 5.3127929277e-05 5.410106678e-05 3.4964041333e-06
          9.3120492238e-05 5.4443626141e-05 3.2331236071e-06 7.9377976363e-05 7.040228229e-05 3.035501777e-06
          7.960441144e-05 6.9753863499e-05 3.7247632463e-06 7.4126095569e-05 7.0948328357e-05 3.6938033645e-06
          7.6571130194e-05 5.6900396885e-05 4.1255007091e-06 7.4327253969e-05 5.7478981034e-05 4.3452973841e-06
          7.9556979472e-05 6.9934503699e-05 4.6852446758e-06 7.9397155787e-05 7.1242029662e-05 4.3865202315e-06
          5.2776704251e-05 5.2866751503e-05 4.6982527238e-06 7.6936383266e-05 5.5681306549e-05 5.2165514717e-06
          7.4836731073e-05 5.7705714426e-05 5.2002301345e-06 7.6381904364e-05 5.7548157201e-05 5.2465366025e-06
          7.5648764323e-05 5.8094548876e-05 4.9134036999e-06 7.9092227679e-05 7.0901151048e-05 5.2028503887e-06
          8.7969943706e-05 5.1168692153e-05 6.2543763306e-06 7.4866991781e-05 5.7303797803e-05 6.6207408054e-06
          7.6499563875e-05 5.7805857068e-05 6.3675252022e-06 7.7113327279e-05 5.7586959883e-05 6.3717134253e-06
          8.0146048276e-05 6.664776447e-05 6.3849711296e-06 7.6215175795e-05 5.845299529e-05 6.9125712798e-06
          7.9662175267e-05 6.6947148298e-05 7.9287965491e-06 7.8645200119e-05 6.9719506428e-05 4.4645034905e-06
          5.1860108215e-05 5.3115614719e-05 8.4518387666e-07 7.9114026448e-05 7.0525849878e-05 3.9201199797e-06
          7.868323155e-05 7.0130190579e-05 5.5048803915e-06 7.5340212788e-05 5.732345744e-05 5.8436280597e-06
          7.5441472291e-05 5.7996341638e-05 6.8342283157e-06 7.6110474765e-05 5.701975897e-05 6.1794416979e-06
          7.5141389971e-05 5.7420111261e-05 4.1343027988e-06 7.4660041719e-05 7.2413626185e-05 3.8618336475e-06
          7.3926763434e-05 7.2561691923e-05 1.8181193582e-06 7.7402524767e-05 5.6901979406e-05 5.9892026911e-06
          5.0179689424e-05 8.4371284174e-05 6.7719014396e-07 7.4315452366e-05 8.6287851445e-05 1.3844094156e-06
          7.4353694799e-05 7.4101095379e-05 1.4636526657e-06 5.0700000429e-05 7.5800002378e-05 1.5699999949e-06
          7.5286894571e-05 8.5285653768e-05 1.9221051843e-06 9.7378557257e-05 8.7314117991e-05 2.0208049136e-06
          9.828885959e-05 8.7745269411e-05 1.9646083729e-06 9.6951771411e-05 8.70248914e-05 2.8998915695e-06
          9.7778858617e-05 8.8071799837e-05 2.7170685826e-06 9.7468975582e-05 8.8922643044e-05 2.9973668916e-06
          9.6992407634e-05 8.7989435997e-05 3.2713808196e-06 8.155604155e-05 8.9513814601e-05 4.0612749217e-06
          9.7378462669e-05 8.8043299911e-05 4.1497137317e-06 7.1059483162e-05 9.4290990091e-05 4.4265302677e-06
          7.257766265e-05 9.3694412499e-05 4.6591626415e-06 7.0544003393e-05 8.8270069682e-05 5.2793507166e-06
          8.3530809206e-05 8.8869892352e-05 5.0745516091e-06 7.1120368375e-05 8.9811364887e-05 5.1282304412e-06
          8.7224325398e-05 7.9238845501e-05 5.9142757891e-06 7.5292402471e-05 9.3951108283e-05 5.6639032664e-06
          8.6367501353e-05 7.7068791143e-05 6.0773027144e-06 8.6947948148e-05 7.7918841271e-05 5.8949108279e-06
          8.5548403149e-05 7.7850927482e-05 6.3571137616e-06 7.1560338256e-05 9.113260603e-05 6.2032213464e-06
          8.5528990894e-05 7.7186668932e-05 6.5183198785e-06 8.6728599854e-05 7.7602519013e-05 6.7012474574e-06
          8.6217325588e-05 7.8748285887e-05 6.8555277721e-06 8.7154650828e-05 7.8998818935e-05 6.766585102e-06
          8.264095959e-05 8.927154704e-05 6.5078788793e-06 5.4169417126e-05 9.4669179816e-05 6.5696276579e-06
          5.4835687479e-05 9.541464533e-05 6.5873077801e-06 5.272956696e-05 9.5584589872e-05 6.7568585109e-06
          5.3677074902e-05 9.555160068e-05 6.5008703132e-06 9.1333335149e-05 8.3345395979e-05 7.0660057645e-06
          9.1900139523e-05 8.4914929175e-05 7.1489776019e-06 6.410619244e-05 8.987410547e-05 7.3519977377e-06
          7.521158841e-05 9.3804861535e-05 7.2604279922e-06 5.3740553994e-05 9.6395051514e-05 7.4008066804e-06
          9.3568400189e-05 8.4409257397e-05 7.4623803812e-06 7.6139134762e-05 9.5109862741e-05 7.9344390542e-06
          5.3559990192e-05 9.5430848887e-05 7.5981965892e-06 5.4643027397e-05 9.5729490567e-05 8.219692063e-06
          9.1802576208e-05 8.490664186e-05 8.154545867e-06 9.1551133664e-05 8.3518549218e-05 8.7118742158e-06
          9.2887392384e-05 8.4091392637e-05 8.3611648733e-06 9.3674716481e-05 8.4751118266e-05 8.1565904111e-06
          9.2665824923e-05 8.5152765678e-05 9.5711557151e-06 6.4047104388e-05 8.8183609478e-05 8.5038418547e-06
          9.3581489637e-05 8.4899918875e-05 9.3072667369e-06 9.2681490059e-05 8.4693834651e-05 7.6701107901e-06
          7.4576040788e-05 7.4580304499e-05 2.2518247533e-06 7.5113697676e-05 7.4268667959e-05 9.6658902748e-07
          9.7743381048e-05 8.7232605438e-05 4.180174983e-06 8.5356499767e-05 7.7753618825e-05 7.1994145401e-06
          9.2966794909e-05 8.4258936113e-05 9.5543073257e-06 5.4566458857e-05 9.5932693512e-05 7.3588607847e-06
          6.4137493609e-05 8.9577973995e-05 9.1900783445e-06 5.0166800065e-05 8.3895669377e-05 1.3917585875e-06
          8.6225947598e-05 7.7934906585e-05 7.3217420322e-06 9.2329049949e-05 8.453722694e-05 8.8477336249e-06
          7.4526316894e-05 8.4083687398e-05 2.578617341e-06 8.2800732343e-05 8.8732711447e-05 3.5241123442e-06
          8.7296117272e-05 7.8495693742e-05 5.5431091823e-06 8.5294392193e-05 7.8314864368e-05 5.7069846662e-06
          9.3912094599e-05 8.4174098447e-05 8.7214648374e-06 9.2347254395e-05 8.5452818894e-05 8.9802424554e-06
        </DataArray>
      </Points>
      <Cells>
        <DataArray type="Int64" Name="connectivity" format="ascii" RangeMin="0" RangeMax="339">
          0 1 2 3 4 5
          6 7 8 9 10 11
          12 13 14 15 16 17
          18 19 20 21 22 23
          24 25 26 27 28 29
          30 31 32 33 34 35
          36 37 38 39 40 41
          42 43 44 45 46 47
          48 49 50 51 52 53
          54 55 56 57 58 59
          60 61 62 63 64 65
          66 67 68 69 70 71
          72 73 74 75 76 77
          78 79 80 81 82 83
          84 85 86 87 88 89
          90 91 92 93 94 95
          96 97 98 99 100 101
          102 103 104 105 106 107
          108 109 110 111 112 113
          114 115 116 117 118 119
          120 121 122 123 124 125
          126 127 128 129 130 131
          132 133 134 135 136 137
          138 139 140 141 142 143