<?xml version="1.0"?>
<VTKFile type="UnstructuredGrid" version="0.1" byte_order="LittleEndian" header_type="UInt32" compressor="vtkZLibDataCompressor">
  <UnstructuredGrid>
    <Piece NumberOfPoints="185" NumberOfCells="185">
      <PointData>
        <DataArray type="Int32" Name="id" format="ascii" RangeMin="1" RangeMax="185">
          133 174 75 19 134 59
          50 123 97 49 42 118
          131 15 22 44 3 93
          40 1 78 176 175 54
          150 117 24 7 124 119
          20 109 154 62 106 84
          141 161 137 61 166 148
          121 77 177 32 51 60
          85 105 81 151 167 129
          155 67 18 92 160 145
          135 14 26 82 57 158
          89 12 181 111 64 37
          34 142 156 90 168 79
          46 35 101 157 2 126
          86 115 136 69 48 120
          72 149 39 13 99 30
          113 23 96 95 182 110
          43 127 56 33 159 73
          6 38 179 146 47 87
          116 17 173 88 41 169
          91 102 58 10 107 11
          162 66 138 103 45 130
          152 36 125 55 163 25
          80 147 74 5 140 4
          132 108 164 9 76 139
          52 183 184 185 68 104
          21 29 65 170 122 178
          28 8 83 94 114 144
          63 53 165 153 27 70
          171 31 128 180 16 112
          172 100 71 98 143
        </DataArray>
        <DataArray type="Int32" Name="type" format="ascii" RangeMin="1" RangeMax="2">
          2 2 2 1 1 1
          1 1 1 1 1 1
          1 1 1 1 1 1
          1 1 2 2 2 1
          1 1 1 1 2 1
          1 2 2 2 2 1
          2 2 2 2 1 2
          2 2 2 1 1 1
          1 2 1 1 1 1
          2 2 1 1 1 1
          2 1 1 1 1 2
          1 1 2 2 2 1
          1 2 2 1 1 2
          1 1 1 2 1 1
          1 1 2 2 1 1
          2 2 1 1 1 1
          2 1 1 1 2 1
          1 2 1 1 2 2
          1 1 1 1 1 1
          1 1 1 1 1 1
          1 1 1 1 2 1
          2 2 2 1 1 1
          1 1 2 1 2 1
          1 1 2 1 1 1
          2 2 2 1 2 2
          1 2 2 2 2 1
          1 1 2 2 2 2
          1 1 1 1 2 2
          2 1 2 1 1 2
          2 1 2 2 1 2
          2 1 2 1 2
        </DataArray>
        <DataArray type="Float64" Name="diameter" format="ascii" RangeMin="8.1008183573e-07" RangeMax="1.9637860262e-06">
          9.969186148e-07 9.1198225978e-07 8.4975976991e-07 1.6606596832e-06 1.6113273903e-06 1.7230490864e-06
          1.7117302822e-06 1.7444903169e-06 1.8987510666e-06 1.7661511349e-06 1.83977955e-06 1.7852600559e-06
          1.5685502641e-06 1.65780273e-06 1.7758983194e-06 1.9419895187e-06 1.8781082878e-06 1.9322814468e-06
          1.7943276449e-06 1.6903143435e-06 9.0998274178e-07 8.8204835303e-07 8.7305624736e-07 1.8196708514e-06
          1.5523764043e-06 1.7756419529e-06 1.649106019e-06 1.929213244e-06 8.8352715868e-07 1.6160820797e-06
          1.8193088284e-06 9.8442171086e-07 9.0368228356e-07 9.5684480439e-07 9.3900814286e-07 1.619135338e-06
          1.0134235603e-06 8.8350693456e-07 1.0401581718e-06 9.9182909344e-07 1.5623139672e-06 9.7886575783e-07
          9.3362522625e-07 9.1818440521e-07 8.6716986519e-07 1.8682421399e-06 1.8385607315e-06 1.712843607e-06
          1.9625515967e-06 9.347693247e-07 1.6487144351e-06 1.5652606623e-06 1.5608202175e-06 1.6527336701e-06
          9.6230837521e-07 8.6855122753e-07 1.9547657293e-06 1.817655904e-06 1.5550877767e-06 1.5300239499e-06
          1.0522517933e-06 1.6371952756e-06 1.9309152631e-06 1.6220007858e-06 1.8625901232e-06 9.418977519e-07
          1.7871965781e-06 1.6870162925e-06 8.1718724221e-07 9.8680669402e-07 9.6005427881e-07 1.8193087596e-06
          1.8160269329e-06 1.0150654188e-06 9.0327902788e-07 1.9637860262e-06 1.560068782e-06 9.5168104624e-07
          1.8235829678e-06 1.929213215e-06 1.7522959324e-06 9.1308035434e-07 1.7358751328e-06 1.6488187031e-06
          1.6212198977e-06 1.6551202631e-06 8.6833392062e-07 1.0137406904e-06 1.7674587213e-06 1.6779944154e-06
          9.7881329763e-07 9.2443020219e-07 1.9374142279e-06 1.8249484566e-06 1.7390545652e-06 1.8089329008e-06
          9.4346532598e-07 1.8474162183e-06 1.720652072e-06 1.9002484274e-06 8.1795500007e-07 1.6997538876e-06
          1.9292132506e-06 1.0539541044e-06 1.8056666883e-06 1.7747536171e-06 9.6422875061e-07 8.9849753077e-07
          1.8193087688e-06 1.8484724063e-06 1.5444765643e-06 1.5300239693e-06 1.8838945204e-06 1.6314503962e-06
          1.7124710286e-06 1.6215361005e-06 1.5402139242e-06 1.6050164966e-06 1.8430865686e-06 1.5488704906e-06
          1.9417838867e-06 1.673120269e-06 1.6870163138e-06 1.9036607738e-06 9.166559155e-07 1.6941711731e-06
          9.072775083e-07 9.7946072498e-07 1.0511149544e-06 1.8669284285e-06 1.8270033051e-06 1.7432539639e-06
          1.6592417557e-06 1.5407814068e-06 8.9849797992e-07 1.867438612e-06 9.2496844767e-07 1.7019274457e-06
          1.5921529889e-06 1.5115120578e-06 8.8376678643e-07 1.8397795415e-06 1.6725253865e-06 1.9547657557e-06
          8.6697257453e-07 9.3599785323e-07 8.8399359388e-07 1.6187956263e-06 9.9103830591e-07 1.0389563606e-06
          1.916437027e-06 8.315084474e-07 8.3178757757e-07 8.4777146219e-07 8.5274084965e-07 1.7292293547e-06
          1.763122036e-06 1.8369788049e-06 9.150578027e-07 8.7800207088e-07 9.4241351652e-07 8.2532277836e-07
          1.8385607238e-06 1.9292132192e-06 1.6362689932e-06 1.9322814582e-06 1.0036373422e-06 9.4749862816e-07
          9.3769818559e-07 1.7943276543e-06 8.8224501908e-07 1.5788463386e-06 1.8945984551e-06 9.084122667e-07
          9.0393127454e-07 1.7595085145e-06 9.0544676819e-07 8.1008183573e-07 1.9547657644e-06 9.2221786832e-07
          8.6871271366e-07 1.682626618e-06 9.8433385861e-07 1.8483290818e-06 1.0133331199e-06
        </DataArray>
      </PointData>
      <CellData>
      </CellData>
      <Points>
        <DataArray type="Float32" Name="Points" NumberOfComponents="3" format="ascii" RangeMin="9.7690909622e-06" RangeMax="0.0001316168338">
          1.9497842004e-05 2.3358416001e-05 4.9529143098e-07 1.9595490812e-05 2.3143235012e-05 1.4051703374e-06
          2.0227200366e-05 2.373872303e-05 1.4194172309e-06 4.9554023462e-06 8.5438296082e-06 1.9659089503e-06
          1.2857519323e-05 1.6971376681e-05 1.7773273839e-06 4.0733597416e-05 1.5487901692e-05 2.4898090487e-06
          1.3356835552e-05 1.5588879251e-05 2.524142019e-06 4.9443447097e-06 7.6967990026e-06 3.4275178677e-06
          4.1289789806e-05 1.5513160179e-05 4.2021902118e-06 3.1451425457e-05 8.1974958448e-06 5.5240225265e-06
          1.7200000002e-05 5.7000002016e-06 6.1699997786e-06 1.4945727571e-06 9.3156895673e-06 6.2992357925e-06
          3.2112217013e-05 9.1121773949e-06 6.7675564424e-06 2.027528808e-06 1.0833342458e-05 6.9199195423e-06
          1.4600000213e-05 8.9300001491e-06 7.4399999903e-06 2.5600000299e-05 1.6800000594e-05 7.3599999268e-06
          4.6400000429e-05 1.1600000107e-05 7.9499995991e-06 1.390545458e-05 3.8661248254e-05 1.6269709704e-06
          1.4476606339e-05 4.0287668526e-05 2.2921369691e-06 2.940552622e-05 4.0623275709e-05 3.5396085423e-06
          4.5857272198e-05 4.0960854676e-05 3.8495786612e-06 4.5198237785e-05 4.0840786824e-05 4.874287697e-06
          4.566581265e-05 4.146007268e-05 4.5305955609e-06 3.1043218769e-05 4.8806137784e-05 4.8785818763e-06
          3.9064412704e-05 3.905228732e-05 5.0176395234e-06 2.9394221201e-05 3.9757382183e-05 5.0337680477e-06
          3.9549886424e-05 3.7708112359e-05 5.7437514442e-06 1.7500000467e-05 4.059999992e-05 5.6099997892e-06
          4.5688444516e-05 4.112114766e-05 5.5076543504e-06 3.1720384868e-05 4.9743481213e-05 6.1529271989e-06
          4.6527320592e-06 2.9519362215e-05 6.8962986006e-06 4.5968713493e-06 3.2647545595e-05 6.696928267e-06
          5.8338200688e-06 3.3393545891e-05 7.1663230301e-06 4.9483664952e-06 3.3556410926e-05 7.146381904e-06
          3.6913967051e-05 3.9811686293e-05 7.2532120612e-06 5.9925209825e-06 2.9235274269e-05 7.9220544649e-06
          4.6630680117e-06 3.2769290556e-05 7.6598435044e-06 3.669061698e-05 4.0430993977e-05 7.866850865e-06
          3.6733395973e-05 4.0373455704e-05 8.8088663688e-06 3.7692203477e-05 4.014064325e-05 8.6669724624e-06
          5.1756937864e-06 2.966323882e-05 9.2249183581e-06 3.5775265133e-05 6.9837784395e-05 2.15791556e-06
          3.6639641621e-05 6.9543028076e-05 2.2515796445e-06 3.6522644223e-05 7.0492911618e-05 2.2569502107e-06
          3.7404039176e-05 7.04321792e-05 2.2163344511e-06 3.5306176869e-05 7.2273112892e-05 1.9936178433e-06
          3.7406809952e-06 5.7287314121e-05 3.1500471778e-06 1.5952040485e-05 6.7344051786e-05 3.6858543808e-06
          3.5293571273e-05 7.1307564212e-05 3.659731874e-06 4.0467430154e-06 7.3114824772e-05 4.2543392738e-06
          4.0419531615e-06 5.6543125538e-05 4.8537576731e-06 4.5897013479e-06 5.8046312915e-05 5.0261332945e-06
          9.2233658506e-06 6.7022330768e-05 5.1214692576e-06 1.5456185793e-05 6.765085709e-05 5.2679010878e-06
          4.0161316974e-06 7.3303323006e-05 5.168862117e-06 5.0541639212e-06 7.3262453952e-05 5.0269018175e-06
          9.6699995993e-06 5.4100000852e-05 5.8999999055e-06 2.3127144232e-05 6.5455475124e-05 5.9018971115e-06
          5.878338925e-06 6.2757026171e-05 6.4237624429e-06 4.9354753173e-06 7.0349531597e-05 6.2772837737e-06
          4.4262296797e-06 7.3232571594e-05 6.2187127696e-06 7.3581481956e-06 6.2175517087e-05 6.6505149334e-06
          2.3687214707e-05 6.3904764829e-05 6.7395808401e-06 9.2767550086e-06 6.7067390773e-05 6.6888405854e-06
          9.8325335784e-06 6.870454672e-05 6.5690401243e-06 2.8769305572e-05 7.3981253081e-05 6.8673766691e-06
          7.3239266385e-06 6.3476072683e-05 7.897229807e-06 5.3439612202e-06 7.0665497333e-05 7.7949298429e-06
          4.8868405429e-06 7.3751660238e-05 5.6752778619e-06 4.8872905609e-05 8.3940438344e-05 7.3819444424e-07
          4.9747228331e-05 8.4453291493e-05 8.7910802904e-07 3.8396392483e-05 8.4586383309e-05 1.4124453855e-06
          9.124002645e-06 8.3836654085e-05 1.8576876073e-06 4.8980058637e-05 8.4162340499e-05 1.7003843595e-06
          4.9563175708e-05 8.4991406766e-05 1.5922993271e-06 5.2500358834e-06 7.8645818576e-05 2.790660119e-06
          3.9247981476e-05 8.4589497419e-05 2.86399586e-06 7.2218476816e-06 8.6369094788e-05 2.8067331641e-06
          5.8320792959e-06 8.0303252616e-05 3.4685115224e-06 4.3299998651e-05 7.6700001955e-05 3.8200000745e-06
          8.6042300609e-06 8.4158251411e-05 3.5160453535e-06 6.9969128162e-06 8.686377987e-05 3.5410075725e-06
          3.9995968109e-05 9.128722013e-05 3.8819671317e-06 3.8441176002e-05 9.1898182291e-05 3.6437249946e-06
          3.9124563045e-05 8.4643630544e-05 4.4500638978e-06 2.4989860322e-05 8.9337452664e-05 4.489265848e-06
          6.9264187914e-06 8.7016393081e-05 4.6582513278e-06 8.3067943706e-06 8.6678781372e-05 4.7716130211e-06
          4.5599455916e-05 7.797521539e-05 5.3154190027e-06 4.6186709369e-05 7.9586818174e-05 5.5002274166e-06
          2.8890550311e-05 7.4500327173e-05 6.0711681726e-06 2.9810480555e-05 7.4370836955e-05 6.1355817706e-06
          4.7327397624e-05 7.6684234955e-05 6.2688081925e-06 2.5429610105e-05 8.9677603683e-05 6.1230725805e-06
          1.1939481737e-05 7.6021315181e-05 6.9703496592e-06 4.7705922043e-05 9.555357974e-05 6.6373218033e-06
          2.932595271e-05 7.4343341112e-05 7.4930239862e-06 1.2474863979e-05 7.4538962508e-05 7.7711074482e-06
          4.8036195949e-05 7.7665368735e-05 7.6026835814e-06 4.7693825763e-05 9.4627066574e-05 8.2360729721e-06
          7.7256036093e-06 8.6793355877e-05 4.6850127546e-06 6.3440318627e-05 1.4919000932e-05 2.31160152e-06
          5.6400000176e-05 2.2800000806e-05 2.2599999738e-06 5.0594248023e-05 1.3262630091e-05 3.1127478906e-06
          6.3973973738e-05 1.3441423107e-05 3.1097774809e-06 5.8758363593e-05 5.3901435422e-06 4.3856821321e-06
          5.0687023759e-05 1.3030926311e-05 4.0577560867e-06 5.1342722145e-05 1.365215212e-05 4.0633158278e-06
          8.0120895291e-05 1.8887323677e-05 4.230696959e-06 9.3606038718e-05 8.0826866906e-06 4.8716024139e-06
          9.2973619758e-05 1.6023008357e-05 4.7524431466e-06 8.7205473392e-05 3.3995336253e-06 5.9372837313e-06
          5.4435004131e-05 1.6994767066e-05 5.5431228247e-06 8.0428777437e-05 1.8162487322e-05 5.9352632888e-06
          5.8249879658e-05 5.7047577684e-06 6.0080237745e-06 7.164003182e-05 1.2409198462e-05 6.2533958953e-06
          7.0197078458e-05 1.2976217477e-05 6.0322913669e-06 9.3026959803e-05 1.6068022887e-05 6.3183756538e-06
          9.3582319096e-05 1.7703936464e-05 6.1987907429e-06 8.0962425272e-05 1.9626964786e-05 6.1031996665e-06
          9.3593705969e-05 7.1380059126e-06 6.50171296e-06 5.5128559325e-05 1.7954800569e-05 6.8483136602e-06
          8.7613960204e-05 3.7155009522e-06 7.4549298006e-06 9.3100003141e-05 2.3900000087e-05 7.4300000961e-06
          5.3159506933e-05 4.8679303291e-05 1.4464944798e-06 5.7239241869e-05 3.8488156861e-05 2.4971930088e-06
          5.2766652516e-05 4.8522913858e-05 2.2447679839e-06 5.378314745e-05 4.899560372e-05 2.9228867788e-06
          5.3116811614e-05 4.8257723392e-05 3.1002807646e-06 5.7784196542e-05 3.8512906031e-05 4.1749731281e-06
          7.2800001362e-05 4.9700000091e-05 5.4199999795e-06 8.743070066e-05 4.9633144954e-05 5.6263747865e-06
          8.8343404059e-05 2.5169319997e-05 7.7911699918e-06 8.8838714873e-05 2.6579769838e-05 8.3680097305e-06
          7.3879891715e-05 7.3251969297e-05 8.8784918262e-07 5.2132549172e-05 5.3325744375e-05 1.8504268837e-06
          7.3978240835e-05 7.3455630627e-05 1.7709353415e-06 9.2466711067e-05 5.3538657085e-05 2.0027939627e-06
          5.2900635637e-05 5.3885927628e-05 3.2870607356e-06 9.3096881756e-05 5.4410946177e-05 3.188690016e-06
          7.9434175859e-05 7.0148518716e-05 3.5118534925e-06 7.4399998994e-05 7.1700000262e-05 3.7800000428e-06
          5.2789448091e-05 5.2941024478e-05 4.6052768994e-06 7.6678988989e-05 5.6389544625e-05 4.8377378334e-06
          7.9159981397e-05 6.9964400609e-05 4.4806561164e-06 7.5058815128e-05 5.7501780248e-05 5.182465884e-06
          7.5952259067e-05 5.754879021e-05 5.1706992963e-06 8.795139729e-05 5.1115875976e-05 6.2327762862e-06
          7.6491553045e-05 5.7440727687e-05 6.1599130277e-06 7.5524061685e-05 5.7676039432e-05 6.1185423874e-06
          7.9899997218e-05 6.6799999331e-05 7.1700001172e-06 7.9263736552e-05 7.0646834502e-05 4.1722978494e-06
          7.8953984485e-05 7.0417423558e-05 5.1531042118e-06 7.4799740105e-05 7.3866642197e-05 1.0004841897e-06
          7.4499861512e-05 7.4189447332e-05 1.7125960312e-06 7.4339681305e-05 8.6220767116e-05 1.4206462993e-06
          5.0700000429e-05 7.5800002378e-05 1.5699999949e-06 7.4874653365e-05 8.4739542217e-05 2.220792112e-06
          9.7760625067e-05 8.7651489594e-05 2.1391701921e-06 9.7606716736e-05 8.8251697889e-05 2.7491100809e-06
          9.714528278e-05 8.7584259745e-05 3.1379852317e-06 9.7472191555e-05 8.7659798737e-05 3.9567285057e-06
          8.2209917309e-05 8.9103479695e-05 3.779086228e-06 7.1800001024e-05 9.4000002719e-05 4.5400001909e-06
          8.3324215666e-05 8.8929678896e-05 5.0914418352e-06 7.0905458415e-05 8.926125156e-05 5.3869707699e-06
          8.5502106231e-05 7.7795688412e-05 6.4278065111e-06 8.6447296781e-05 7.7587785199e-05 6.3899260567e-06
          8.6933345301e-05 7.8299359302e-05 6.0393604144e-06 7.1476606536e-05 9.0887668193e-05 6.052136996e-06
          8.6707274022e-05 7.8768898675e-05 6.7729151851e-06 8.2641854533e-05 8.9271350589e-05 6.5084182097e-06
          7.5334726716e-05 9.3994378403e-05 6.5225945036e-06 5.4502670537e-05 9.5213967143e-05 6.7955415943e-06
          5.3230956837e-05 9.5579453046e-05 6.7010801104e-06 6.4105792262e-05 8.9843975729e-05 7.403883501e-06
          5.3694355302e-05 9.5875257102e-05 7.4211748142e-06 5.4553082009e-05 9.5698262157e-05 7.4670201684e-06
          9.1533649538e-05 8.3513732534e-05 7.788050425e-06 9.203326772e-05 8.4843253717e-05 7.7151553342e-06
          9.2858594144e-05 8.4581246483e-05 7.6569685916e-06 7.6028809417e-05 9.4955146778e-05 7.8287830547e-06
          9.3057569757e-05 8.4415725723e-05 8.5290530478e-06 6.4093954279e-05 8.8936649263e-05 8.9695495262e-06
          9.2957983725e-05 8.4806917585e-05 9.4406086646e-06
        </DataArray>
      </Points>
      <Cells>
        <DataArray type="Int64" Name="connectivity" format="ascii" RangeMin="0" RangeMax="184">
          0 1 2 3 4 5
          6 7 8 9 10 11
          12 13 14 15 16 17
          18 19 20 21 22 23
          24 25 26 27 28 29
          30 31 32 33 34 35
          36 37 38 39 40 41
          42 43 44 45 46 47
          48 49 50 51 52 53
          54 55 56 57 58 59
          60 61 62 63 64 65
          66 67 68 69 70 71
          72 73 74 75 76 77
          78 79 80 81 82 83
          84 85 86 87 88 89
          90 91 92 93 94 95
          96 97 98 99 100 101
          102 103 104 105 106 107
          108 109 110 111 112 113
          114 115 116 117 118 119
          120 121 122 123 124 125
          126 127 128 129 130 131
          132 133 134 135 136 137
          138 139 140 141 142 143
          144 145 146 147 148 149
          150 151 152 153 154 155
          156 157 158 159 160 161
          162 163 164 165 166 167
          168 169 170 171 172 173
          174 175 176 177 178 179
          180 181 182 183 184
        </DataArray>
        <DataArray type="Int64" Name="offsets" format="ascii" RangeMin="1" RangeMax="185">
          1 2 3 4 5 6
          7 8 9 10 11 12
          13 14 15 16 17 18
          19 20 21 22 23 24
          25 26 27 28 29 30
          31 32 33 34 35 36
          37 38 39 40 41 42
          43 44 45 46 47 48
          49 50 51 52 53 54
          55 56 57 58 59 60
          61 62 63 64 65 66
          67 68 69 70 71 72
          73 74 75 76 77 78
          79 80 81 82 83 84
          85 86 87 88 89 90
          91 92 93 94 95 96
          97 98 99 100 101 102
          103 104 105 106 107 108
          109 110 111 112 113 114
          115 116 117 118 119 120
          121 122 123 124 125 126
          127 128 129 130 131 132
          133 134 135 136 137 138
          139 140 141 142 143 144
          145 146 147 148 149 150
          151 152 153 154 155 156
          157 158 159 160 161 162
          163 164 165 166 167 168
          169 170 171 172 173 174
          175 176 177 178 179 180
          181 182 183 184 185
        </DataArray>
        <DataArray type="UInt8" Name="types" format="ascii" RangeMin="1" RangeMax="1">
          1 1 1 1 1 1
          1 1 1 1 1 1
          1 1 1 1 1 1
          1 1 1 1 1 1
          1 1 1 1 1 1
          1 1 1 1 1 1
          1 1 1 1 1 1
          1 1 1 1 1 1
          1 1 1 1 1 1
          1 1 1 1 1 1
          1 1 1 1 1 1
          1 1 1 1 1 1
          1 1 1 1 1 1
          1 1 1 1 1 1
          1 1 1 1 1 1
          1 1 1 1 1 1
          1 1 1 1 1 1
          1 1 1 1 1 1
          1 1 1 1 1 1
          1 1 1 1 1 1
          1 1 1 1 1 1
          1 1 1 1 1 1
          1 1 1 1 1 1
          1 1 1 1 1 1
          1 1 1 1 1 1
          1 1 1 1 1 1
          1 1 1 1 1 1
          1 1 1 1 1 1
          1 1 1 1 1 1
          1 1 1 1 1 1
          1 1 1 1 1
        </DataArray>
      </Cells>
    </Piece>
  </UnstructuredGrid>
</VTKFile>
