<?xml version="1.0"?>
<VTKFile type="UnstructuredGrid" version="0.1" byte_order="LittleEndian" header_type="UInt32" compressor="vtkZLibDataCompressor">
  <UnstructuredGrid>
    <Piece NumberOfPoints="172" NumberOfCells="172">
      <PointData>
        <DataArray type="Int32" Name="id" format="ascii" RangeMin="1" RangeMax="172">
          133 75 134 19 59 50
          123 97 49 42 118 131
          15 22 44 3 93 40
          1 78 117 54 24 124
          7 119 20 109 62 106
          84 61 137 141 150 154
          161 166 121 77 32 51
          60 85 81 105 129 67
          18 92 82 135 14 26
          57 12 89 145 148 151
          155 160 167 111 64 34
          37 90 46 101 86 79
          35 2 126 136 69 115
          48 120 72 39 13 99
          30 113 23 96 95 142
          149 156 157 158 168 110
          43 127 56 73 33 6
          38 116 88 47 87 91
          17 41 58 102 10 146
          159 169 107 11 66 103
          45 130 36 138 152 162
          125 55 25 80 74 5
          4 132 108 9 76 52
          139 140 147 163 164 68
          104 21 29 65 122 28
          8 94 83 114 63 53
          27 31 128 70 16 112
          100 71 98 143 144 153
          165 170 171 172
        </DataArray>
        <DataArray type="Int32" Name="type" format="ascii" RangeMin="1" RangeMax="2">
          2 2 1 1 1 1
          1 1 1 1 1 1
          1 1 1 1 1 1
          1 2 1 1 1 2
          1 1 1 2 2 2
          1 2 2 2 1 2
          2 1 2 2 1 1
          1 1 1 2 1 2
          1 1 1 2 1 1
          1 1 1 1 2 1
          2 1 1 2 2 1
          1 1 1 1 1 2
          1 1 1 2 2 1
          1 1 2 1 1 1
          1 2 1 1 1 2
          2 2 2 2 1 1
          1 2 1 2 1 1
          1 1 1 1 1 1
          1 1 1 1 1 1
          2 1 2 1 2 1
          1 1 1 2 1 2
          2 1 1 1 2 1
          1 2 2 1 2 1
          2 1 1 2 2 2
          1 1 1 2 2 1
          1 1 1 2 2 1
          1 1 2 2 1 2
          1 2 1 2 2 1
          2 2 2 2
        </DataArray>
        <DataArray type="Float64" Name="diameter" format="ascii" RangeMin="8.1916279878e-07" RangeMax="1.964576176e-06">
          9.3915383663e-07 1.0468525304e-06 1.5882716095e-06 1.6368980298e-06 1.698394729e-06 1.68723788e-06
          1.719529167e-06 1.8715826669e-06 1.7408800474e-06 1.8134549457e-06 1.7597155494e-06 1.54610656e-06
          1.6340819529e-06 1.7504877636e-06 1.914202437e-06 1.8512352544e-06 1.9046332783e-06 1.7686533949e-06
          1.6661283722e-06 1.0591759034e-06 1.7502350661e-06 1.7936339748e-06 1.6255096786e-06 1.0483643009e-06
          1.9016089747e-06 1.5929582645e-06 1.7932771344e-06 9.2700578573e-07 9.0103728913e-07 8.8468622955e-07
          1.5959678388e-06 9.3446053478e-07 9.7999420253e-07 9.5431611619e-07 1.5301641256e-06 8.5097544689e-07
          8.3238069008e-07 1.5399594953e-06 8.7898549935e-07 1.0594698461e-06 1.8415102812e-06 1.8122535711e-06
          1.6883352764e-06 1.9344703052e-06 1.6251237009e-06 8.781054275e-07 1.6290854255e-06 9.9850072299e-07
          1.926795841e-06 1.7916478587e-06 1.5987922851e-06 9.8842425218e-07 1.6137693666e-06 1.9032866391e-06
          1.8359391356e-06 1.6628775142e-06 1.7616243663e-06 1.5081315063e-06 9.2168533746e-07 1.5428640314e-06
          9.0397511436e-07 1.5328367045e-06 1.538487123e-06 9.2835843426e-07 9.034155684e-07 1.7900421997e-06
          1.7932770687e-06 1.935687074e-06 1.7974901186e-06 1.7272230955e-06 1.5980225697e-06 8.9589319334e-07
          1.9016089484e-06 1.7110372566e-06 1.6252264792e-06 1.0009768938e-06 9.5438111549e-07 1.6314378683e-06
          1.7421689278e-06 1.6539847265e-06 9.2190898273e-07 1.9096926156e-06 1.7988360645e-06 1.7141711915e-06
          1.7830496684e-06 8.8861600166e-07 1.8209823456e-06 1.6960320125e-06 1.8730585995e-06 9.5518130856e-07
          8.7068750431e-07 8.4998979163e-07 8.5955528658e-07 8.8712867855e-07 1.5377464403e-06 1.6754328513e-06
          1.9016089806e-06 9.9181383159e-07 1.7798301926e-06 8.4550103514e-07 1.7493594417e-06 1.7932770768e-06
          1.8220234216e-06 1.6879680266e-06 1.9563896404e-06 1.8569386967e-06 1.6081066874e-06 1.9139997486e-06
          1.964576176e-06 1.8167146494e-06 1.6628775318e-06 1.6491803201e-06 1.8764221218e-06 1.5081315224e-06
          9.0735520003e-07 1.5267083773e-06 8.6345429328e-07 1.6699300165e-06 9.2262575849e-07 1.8402153643e-06
          1.8008615103e-06 1.718310502e-06 1.5187350338e-06 9.9012212269e-07 1.6355003871e-06 8.5463110251e-07
          8.466576888e-07 1.8407182507e-06 1.6775753075e-06 1.569371567e-06 1.0192862379e-06 1.8134549379e-06
          1.9267958651e-06 1.008938346e-06 8.8175212464e-07 1.5956329835e-06 9.3351877621e-07 1.8890155645e-06
          9.7875180247e-07 1.6485939497e-06 1.4898844895e-06 8.7160090018e-07 8.3276177064e-07 1.0093550263e-06
          1.7044865692e-06 1.7378942934e-06 1.8106942786e-06 8.6329634617e-07 1.0552010013e-06 1.8122535623e-06
          1.9016089518e-06 1.9046332889e-06 1.6128563345e-06 9.4599423175e-07 8.8383088337e-07 1.7686534036e-06
          1.8674894734e-06 1.7343324741e-06 8.5275617802e-07 1.0230302263e-06 1.926795873e-06 8.6961610924e-07
          1.6585506467e-06 9.2819319682e-07 1.821882145e-06 9.5553850935e-07 8.9319852155e-07 1.5562553138e-06
          8.3156329675e-07 8.2829178489e-07 8.5132887537e-07 8.1916279878e-07
        </DataArray>
      </PointData>
      <CellData>
      </CellData>
      <Points>
        <DataArray type="Float32" Name="Points" NumberOfComponents="3" format="ascii" RangeMin="9.7690909622e-06" RangeMax="0.00013148946318">
          1.9500079361e-05 2.3353984943e-05 5.1466543027e-07 1.9918961698e-05 2.3450398658e-05 1.4058472289e-06
          1.2857519323e-05 1.6971376681e-05 1.7773273839e-06 4.9554023462e-06 8.5438296082e-06 1.9659089503e-06
          4.0739774704e-05 1.5488181816e-05 2.5088288567e-06 1.3356835552e-05 1.5588879251e-05 2.524142019e-06
          4.9443447097e-06 7.6967990026e-06 3.4275178677e-06 4.1283612518e-05 1.5512880054e-05 4.1831704038e-06
          3.1459294405e-05 8.2083897723e-06 5.5388336477e-06 1.7200000002e-05 5.7000002016e-06 6.1699997786e-06
          1.5007550473e-06 9.3332946562e-06 6.3064358073e-06 3.2104348065e-05 9.1012825578e-06 6.7527453211e-06
          2.0213465177e-06 1.0815737369e-05 6.9127195275e-06 1.4600000213e-05 8.9300001491e-06 7.4399999903e-06
          2.5600000299e-05 1.6800000594e-05 7.3599999268e-06 4.6400000429e-05 1.1600000107e-05 7.9499995991e-06
          1.390545458e-05 3.8661248254e-05 1.6269709704e-06 1.4476606339e-05 4.0287668526e-05 2.2921369691e-06
          2.9405395253e-05 4.0613249439e-05 3.5569123611e-06 4.5746401156e-05 4.1205297748e-05 4.2119954742e-06
          2.9394352168e-05 3.9767408452e-05 5.0164640015e-06 3.1051091355e-05 4.881703353e-05 4.8933929975e-06
          3.9543832827e-05 3.7724883441e-05 5.7346924223e-06 4.5454806241e-05 4.0995571908e-05 5.1839806474e-06
          1.7500000467e-05 4.059999992e-05 5.6099997892e-06 3.171251592e-05 4.9732589105e-05 6.1381156229e-06
          4.8408919611e-06 2.9487324355e-05 7.1006970757e-06 4.5984015742e-06 3.265048872e-05 6.7166506597e-06
          4.9574946388e-06 3.3524574974e-05 7.1649196798e-06 3.6904224544e-05 3.9838781959e-05 7.2809721132e-06
          5.6572489484e-06 2.9368511605e-05 8.1425268945e-06 3.7672914914e-05 4.0145343519e-05 8.6694044512e-06
          3.6763776734e-05 4.0367107431e-05 8.7715052359e-06 4.6700392886e-06 3.2788990211e-05 7.6274081948e-06
          3.9070469938e-05 3.9035516238e-05 5.0266990002e-06 5.8140522015e-06 3.3396579965e-05 7.1662448136e-06
          3.6705961975e-05 4.0392355004e-05 7.8665107139e-06 5.1960469136e-06 2.9653871024e-05 9.2337104434e-06
          3.6629389797e-05 6.9567235187e-05 2.2494289169e-06 3.6975365219e-05 7.0461712312e-05 2.2360882213e-06
          3.5306045902e-05 7.2263079346e-05 2.0109218895e-06 3.7406809952e-06 5.7287314121e-05 3.1500471778e-06
          1.5946157873e-05 6.7347697041e-05 3.7046202124e-06 3.529370224e-05 7.1317590482e-05 3.6424278278e-06
          4.0487611841e-06 5.6561806559e-05 4.8558999879e-06 4.0461045501e-06 7.3123010225e-05 4.2934825615e-06
          1.5462068404e-05 6.7647219112e-05 5.2491350289e-06 4.9199397836e-06 7.3499562859e-05 5.3749786275e-06
          9.6699995993e-06 5.4100000852e-05 5.8999999055e-06 2.3127144232e-05 6.5455475124e-05 5.9018971115e-06
          9.2767550086e-06 6.7067390773e-05 6.6888405854e-06 4.446303592e-06 7.3243201768e-05 6.1857940636e-06
          7.3397204687e-06 6.2182763941e-05 6.6476909524e-06 2.3687214707e-05 6.3904764829e-05 6.7395808401e-06
          9.8325335784e-06 6.870454672e-05 6.5690401243e-06 5.3388653214e-06 7.066156104e-05 7.7759959822e-06
          7.3239266385e-06 6.3476072683e-05 7.897229807e-06 4.9405716709e-06 7.0353475166e-05 6.2962176344e-06
          3.5775196011e-05 6.9837580668e-05 2.1579196527e-06 4.58289378e-06 5.8027631894e-05 5.0239905249e-06
          4.0508057282e-06 7.3303301178e-05 5.1407637329e-06 5.8967666519e-06 6.2749779318e-05 6.4265859692e-06
          9.2233658506e-06 6.7022330768e-05 5.1214692576e-06 4.8877220252e-05 8.394937322e-05 7.7694386391e-07
          4.9743190175e-05 8.4465093096e-05 8.9474502829e-07 9.124002645e-06 8.3836654085e-05 1.8576876073e-06
          3.8520891394e-05 8.4587321908e-05 1.6406969507e-06 5.2562181736e-06 7.8663426393e-05 2.7978601338e-06
          5.8258970057e-06 8.0285644799e-05 3.4613112803e-06 8.6042300609e-06 8.4158251411e-05 3.5160453535e-06
          3.9129725337e-05 8.463668928e-05 4.2297770051e-06 7.2169232226e-06 8.6379928689e-05 2.8228093925e-06
          4.3299998651e-05 7.6700001955e-05 3.8200000745e-06 3.9977541746e-05 9.1294459708e-05 3.8791431507e-06
          3.8459606003e-05 9.1890942713e-05 3.6465487483e-06 7.3573437476e-06 8.6897081928e-05 4.6740251491e-06
          8.2874003056e-06 8.6683234258e-05 4.7696194088e-06 2.4989860322e-05 8.9337452664e-05 4.489265848e-06
          4.5606262574e-05 7.7993892774e-05 5.3175613175e-06 4.6179902711e-05 7.9568140791e-05 5.4980851019e-06
          2.8902011763e-05 7.4480507465e-05 6.0997190303e-06 4.7327397624e-05 7.6684234955e-05 6.2688081925e-06
          2.5429610105e-05 8.9677603683e-05 6.1230725805e-06 1.1939481737e-05 7.6021315181e-05 6.9703496592e-06
          4.7705791076e-05 9.5543546195e-05 6.6546258495e-06 2.9313985578e-05 7.4335897807e-05 7.4788326856e-06
          1.2474863979e-05 7.4538962508e-05 7.7711074482e-06 4.8036195949e-05 7.7665368735e-05 7.6026835814e-06
          4.7693956731e-05 9.4637100119e-05 8.2187698354e-06 4.8975743994e-05 8.4153405624e-05 1.6616349967e-06
          2.9790649933e-05 7.4373281677e-05 6.1347191149e-06 4.9567213864e-05 8.4979612438e-05 1.5766623847e-06
          7.0018377301e-06 8.6852953245e-05 3.5249313441e-06 2.8784763344e-05 7.4009025411e-05 6.8462377385e-06
          3.9076359826e-05 8.4591651103e-05 2.6631598757e-06 6.34463795e-05 1.490222985e-05 2.3206607693e-06
          5.6400000176e-05 2.2800000806e-05 2.2599999738e-06 5.0596285291e-05 1.3258016224e-05 3.1321012557e-06
          6.3967920141e-05 1.345819328e-05 3.1007182315e-06 5.1328162954e-05 1.3638441487e-05 4.0629515752e-06
          5.8758363593e-05 5.3901435422e-06 4.3856821321e-06 8.0120895291e-05 1.8887323677e-05 4.230696959e-06
          9.360590775e-05 8.0726595115e-06 4.8889060054e-06 5.8249879658e-05 5.7047577684e-06 6.0080237745e-06
          9.2999776825e-05 1.6045083612e-05 5.5203590819e-06 5.4435004131e-05 1.6994767066e-05 5.5431228247e-06
          8.0428777437e-05 1.8162487322e-05 5.9352632888e-06 9.3593836937e-05 7.1480340011e-06 6.4844093686e-06
          7.0900001447e-05 1.2700000298e-05 6.1400000959e-06 9.3582319096e-05 1.7703936464e-05 6.1987907429e-06
          8.7608867034e-05 3.7115589748e-06 7.4359959399e-06 5.5128559325e-05 1.7954800569e-05 6.8483136602e-06
          9.3100003141e-05 2.3900000087e-05 7.4300000961e-06 8.7210573838e-05 3.4034756027e-06 5.956217592e-06
          5.0694630772e-05 1.3042919818e-05 4.0436889321e-06 8.0962425272e-05 1.9626964786e-05 6.1031996665e-06
          5.3143790865e-05 4.8672020057e-05 1.482531502e-06 5.7239241869e-05 3.8488156861e-05 2.4971930088e-06
          5.3756361012e-05 4.8966554459e-05 2.929057473e-06 5.7784196542e-05 3.8512906031e-05 4.1749731281e-06
          7.2800001362e-05 4.9700000091e-05 5.4199999795e-06 8.7436885224e-05 4.9650749133e-05 5.6335748013e-06
          8.8832530309e-05 2.6562165658e-05 8.3608092609e-06 5.3118877986e-05 4.8288628022e-05 3.0544413221e-06
          8.8349588623e-05 2.5186925996e-05 7.7983695519e-06 5.2834078815e-05 4.8514779337e-05 2.2476069717e-06
          7.3884213634e-05 7.3260911449e-05 9.2659860229e-07 5.2141422202e-05 5.3332129028e-05 1.867175456e-06
          9.2474583653e-05 5.3549552831e-05 2.0176050839e-06 5.2890558436e-05 5.3868705436e-05 3.2856546568e-06
          7.9340730736e-05 7.040122e-05 3.8708976717e-06 7.4399998994e-05 7.1700000262e-05 3.7800000428e-06
          7.666858437e-05 5.6405962823e-05 4.842456292e-06 7.90604754e-05 7.0199646871e-05 4.8050801524e-06
          7.5078787631e-05 5.7502649724e-05 5.1821539273e-06 8.7945212726e-05 5.1098271797e-05 6.2255762714e-06
          7.6472133514e-05 5.7445449784e-05 6.1590831137e-06 7.9899997218e-05 6.6799999331e-05 7.1700001172e-06
          7.554347394e-05 5.7671313698e-05 6.1193723013e-06 5.279072866e-05 5.2952542319e-05 4.5889751163e-06
          9.3089009169e-05 5.4400050431e-05 3.1738788948e-06 7.3973926192e-05 7.3446695751e-05 1.7321859787e-06
          7.5931435276e-05 5.7528992329e-05 5.1659226301e-06 7.4650233728e-05 7.4027579103e-05 1.3555094256e-06
          7.4339681305e-05 8.6220767116e-05 1.4206462993e-06 5.0700000429e-05 7.5800002378e-05 1.5699999949e-06
          7.4874653365e-05 8.4739542217e-05 2.220792112e-06 9.7751057183e-05 8.7674576207e-05 2.1703754101e-06
          9.7354997706e-05 8.7695705588e-05 3.4833421978e-06 8.2209917309e-05 8.9103479695e-05 3.779086228e-06
          7.1800001024e-05 9.4000002719e-05 4.5400001909e-06 7.0905458415e-05 8.926125156e-05 5.3869707699e-06
          8.3284496213e-05 8.8941160357e-05 5.0945595831e-06 8.5541199951e-05 7.778739382e-05 6.4261203079e-06
          8.6900450697e-05 7.8287448559e-05 6.0874863266e-06 7.1476606536e-05 9.0887668193e-05 6.052136996e-06
          7.5334726716e-05 9.3994378403e-05 6.5225945036e-06 6.4105668571e-05 8.983394946e-05 7.4211875472e-06
          5.3721025324e-05 9.5844254247e-05 7.3823457569e-06 5.4494314099e-05 9.5486342616e-05 7.1608069447e-06
          9.1540903668e-05 8.3532337158e-05 7.7870272435e-06 9.2051297543e-05 8.4799430624e-05 7.7171252997e-06
          7.6028809417e-05 9.4955146778e-05 7.8287830547e-06 9.3024471425e-05 8.4468076238e-05 8.50473225e-06
          6.4094085246e-05 8.8946675532e-05 8.95224548e-06 9.2963018687e-05 8.4784907813e-05 9.3850394478e-06
          8.6415770056e-05 7.7603894169e-05 6.387596386e-06 8.2642050984e-05 8.9271306933e-05 6.5085191636e-06
          8.6711923359e-05 7.8757911979e-05 6.7568630584e-06 9.7545613244e-05 8.8126391347e-05 2.8410231607e-06
          5.3252020734e-05 9.5592171419e-05 6.732604561e-06 9.2853042588e-05 8.4575680376e-05 7.7439726738e-06
        </DataArray>
      </Points>
      <Cells>
        <DataArray type="Int64" Name="connectivity" format="ascii" RangeMin="0" RangeMax="171">
          0 1 2 3 4 5
          6 7 8 9 10 11
          12 13 14 15 16 17
          18 19 20 21 22 23
          24 25 26 27 28 29
          30 31 32 33 34 35
          36 37 38 39 40 41
          42 43 44 45 46 47
          48 49 50 51 52 53
          54 55 56 57 58 59
          60 61 62 63 64 65
          66 67 68 69 70 71
          72 73 74 75 76 77
          78 79 80 81 82 83
          84 85 86 87 88 89
          90 91 92 93 94 95
          96 97 98 99 100 101
          102 103 104 105 106 107
          108 109 110 111 112 113
          114 115 116 117 118 119
          120 121 122 123 124 125
          126 127 128 129 130 131
          132 133 134 135 136 137
          138 139 140 141 142 143
          144 145 146 147 148 149
          150 151 152 153 154 155
          156 157 158 159 160 161
          162 163 164 165 166 167
          168 169 170 171
        </DataArray>
        <DataArray type="Int64" Name="offsets" format="ascii" RangeMin="1" RangeMax="172">
          1 2 3 4 5 6
          7 8 9 10 11 12
          13 14 15 16 17 18
          19 20 21 22 23 24
          25 26 27 28 29 30
          31 32 33 34 35 36
          37 38 39 40 41 42
          43 44 45 46 47 48
          49 50 51 52 53 54
          55 56 57 58 59 60
          61 62 63 64 65 66
          67 68 69 70 71 72
          73 74 75 76 77 78
          79 80 81 82 83 84
          85 86 87 88 89 90
          91 92 93 94 95 96
          97 98 99 100 101 102
          103 104 105 106 107 108
          109 110 111 112 113 114
          115 116 117 118 119 120
          121 122 123 124 125 126
          127 128 129 130 131 132
          133 134 135 136 137 138
          139 140 141 142 143 144
          145 146 147 148 149 150
          151 152 153 154 155 156
          157 158 159 160 161 162
          163 164 165 166 167 168
          169 170 171 172
        </DataArray>
        <DataArray type="UInt8" Name="types" format="ascii" RangeMin="1" RangeMax="1">
          1 1 1 1 1 1
          1 1 1 1 1 1
          1 1 1 1 1 1
          1 1 1 1 1 1
          1 1 1 1 1 1
          1 1 1 1 1 1
          1 1 1 1 1 1
          1 1 1 1 1 1
          1 1 1 1 1 1
          1 1 1 1 1 1
          1 1 1 1 1 1
          1 1 1 1 1 1
          1 1 1 1 1 1
          1 1 1 1 1 1
          1 1 1 1 1 1
          1 1 1 1 1 1
          1 1 1 1 1 1
          1 1 1 1 1 1
          1 1 1 1 1 1
          1 1 1 1 1 1
          1 1 1 1 1 1
          1 1 1 1 1 1
          1 1 1 1 1 1
          1 1 1 1 1 1
          1 1 1 1 1 1
          1 1 1 1 1 1
          1 1 1 1 1 1
          1 1 1 1 1 1
          1 1 1 1
        </DataArray>
      </Cells>
    </Piece>
  </UnstructuredGrid>
</VTKFile>
