<?xml version="1.0"?>
<VTKFile type="UnstructuredGrid" version="0.1" byte_order="LittleEndian" header_type="UInt32" compressor="vtkZLibDataCompressor">
  <UnstructuredGrid>
    <Piece NumberOfPoints="282" NumberOfCells="282">
      <PointData>
        <DataArray type="Int32" Name="id" format="ascii" RangeMin="1" RangeMax="282">
          133 206 75 19 134 174
          244 59 50 123 241 97
          49 42 118 131 15 44
          22 3 196 264 276 203
          93 40 1 245 78 150
          256 175 54 117 176 124
          24 7 257 215 109 119
          20 207 62 154 246 106
          225 84 141 220 258 198
          208 161 137 166 188 61
          266 267 277 209 121 77
          32 177 148 226 235 51
          85 60 105 186 227 81
          259 151 167 129 67 221
          155 18 92 181 192 160
          216 145 135 14 82 57
          189 228 26 158 113 89
          12 268 269 275 237 210
          111 222 37 247 34 142
          90 156 199 168 229 79
          187 236 217 46 101 157
          2 126 35 86 69 182
          115 136 48 200 72 149
          39 120 278 211 13 99
          204 30 23 230 96 95
          242 270 271 43 127 110
          218 190 56 73 33 159
          223 248 6 38 179 146
          47 87 116 91 17 173
          88 41 169 102 58 197
          243 265 279 280 107 238
          162 11 66 249 191 138
          212 103 45 130 10 152
          36 272 250 185 125 55
          25 163 239 80 147 74
          260 5 193 108 132 183
          140 4 231 164 261 184
          9 195 76 213 52 139
          224 273 64 104 68 21
          29 251 65 122 262 170
          232 28 178 219 8 94
          83 205 63 255 233 234
          114 53 201 144 263 165
          153 252 70 171 253 194
          240 31 27 128 172 100
          254 180 112 16 214 71
          202 98 143 274 282 281
        </DataArray>
        <DataArray type="Int32" Name="type" format="ascii" RangeMin="1" RangeMax="2">
          2 2 2 1 1 2
          2 1 1 1 1 1
          1 1 1 1 1 1
          1 1 1 1 2 1
          1 1 1 2 2 1
          2 2 1 1 2 2
          1 1 2 1 2 1
          1 2 2 2 2 2
          2 1 2 2 2 2
          2 2 2 1 2 2
          2 2 2 2 2 2
          1 2 2 2 2 1
          1 1 2 1 2 1
          2 1 1 1 2 2
          2 1 1 2 1 1
          1 1 2 1 1 1
          2 2 1 2 2 1
          1 2 2 1 2 2
          2 2 1 2 1 2
          1 2 2 1 2 2
          1 2 1 1 1 2
          1 1 1 1 2 2
          1 2 1 2 2 2
          1 1 2 2 1 1
          1 1 1 2 1 1
          1 2 2 1 2 1
          1 2 1 2 1 2
          2 2 1 1 1 1
          1 1 1 1 1 1
          1 1 1 1 1 1
          1 1 2 2 2 2
          2 1 2 2 2 2
          2 1 1 1 1 1
          1 2 2 2 2 1
          1 2 2 1 1 2
          2 1 1 2 2 2
          1 1 2 2 2 2
          1 2 2 2 1 2
          1 2 2 1 2 1
          1 2 2 2 2 2
          2 1 2 1 1 1
          1 1 2 1 2 2
          2 1 2 2 2 2
          1 2 2 2 2 1
          2 1 1 2 2 1
          2 2 2 1 2 2
          2 1 2 2 2 2
        </DataArray>
        <DataArray type="Float64" Name="diameter" format="ascii" RangeMin="8.1894289777e-07" RangeMax="1.9687748739e-06">
          1.018212389e-06 1.0078189241e-06 8.5060455373e-07 1.750775124e-06 1.698765829e-06 9.0411078591e-07
          9.4823767076e-07 1.8165500815e-06 1.8046170698e-06 1.839154817e-06 1.507702226e-06 1.6624041908e-06
          1.8619910662e-06 1.9396149161e-06 1.8821369206e-06 1.6536674196e-06 1.7477631504e-06 1.6534952498e-06
          1.8722671812e-06 1.6112667179e-06 1.5954680634e-06 1.5297084548e-06 8.756640429e-07 1.5343270081e-06
          1.6917608744e-06 1.8916965569e-06 1.782039e-06 9.3186515841e-07 9.1176538526e-07 1.6366158849e-06
          8.383511607e-07 8.8931890834e-07 1.9184150172e-06 1.8719968995e-06 9.4255220078e-07 9.1669231232e-07
          1.7385945163e-06 1.6551106775e-06 8.7217598419e-07 1.5713331431e-06 1.0544249001e-06 1.7037785379e-06
          1.9180333498e-06 9.4028943688e-07 9.3520683658e-07 9.1385114437e-07 9.2341410188e-07 9.8852035833e-07
          9.1456841139e-07 1.7069974804e-06 8.6189124313e-07 1.0072851788e-06 8.6750100833e-07 9.5763541248e-07
          1.0028654419e-06 9.2400824181e-07 8.1894289777e-07 1.6470927135e-06 1.0230437364e-06 1.009352875e-06
          8.7945222485e-07 8.739192261e-07 9.0140616707e-07 9.947836353e-07 1.0086160636e-06 8.9923432193e-07
          1.5875603013e-06 8.7341565432e-07 9.9643317058e-07 8.8329868147e-07 9.6852936282e-07 1.9383299406e-06
          1.5961934164e-06 1.8057908019e-06 1.0099144565e-06 1.6857741365e-06 9.006832622e-07 1.7381816711e-06
          8.546748452e-07 1.650199293e-06 1.6455178868e-06 1.7424190123e-06 9.2378035258e-07 9.562837871e-07
          1.0147707428e-06 1.6682277739e-06 1.9162907265e-06 1.0556905942e-06 1.6018044045e-06 1.6394743794e-06
          1.5299569231e-06 1.6130504619e-06 8.6925625482e-07 1.7260374136e-06 1.7100184103e-06 1.9636632876e-06
          1.0563272487e-06 9.5439866088e-07 1.6932569576e-06 9.5993999255e-07 9.5383721155e-07 1.8841785127e-06
          1.7785619696e-06 8.9277833142e-07 8.7816855365e-07 1.5382417944e-06 9.1544551002e-07 1.0042361175e-06
          1.0092942301e-06 9.3940320124e-07 1.9180332564e-06 8.9100541568e-07 1.9145733446e-06 8.7684199109e-07
          1.5971974033e-06 9.4915735465e-07 9.6230673382e-07 1.6447256718e-06 9.7899722015e-07 9.5776461807e-07
          1.6868344608e-06 8.7187133742e-07 1.5286082954e-06 1.9225394085e-06 1.8473840027e-06 9.8023869519e-07
          1.8300721286e-06 1.7382915967e-06 1.6917643871e-06 1.7091951501e-06 8.1954740404e-07 1.0485742588e-06
          1.7449351197e-06 8.7734928105e-07 1.8633695901e-06 9.6944052285e-07 9.5656076401e-07 9.6239701516e-07
          1.6534197155e-06 1.7690505236e-06 9.0218222781e-07 1.0301497352e-06 1.9239790133e-06 1.8334241019e-06
          1.5875859563e-06 1.9070943746e-06 1.9476659813e-06 9.6358733758e-07 1.8140229971e-06 1.6147580317e-06
          1.5645946134e-06 8.6717567702e-07 8.8959298615e-07 1.6464208819e-06 8.8147661479e-07 1.7919907744e-06
          1.5808657901e-06 8.7398942086e-07 1.9036509146e-06 9.0311843223e-07 1.8710603556e-06 9.5979055308e-07
          1.0065584823e-06 9.2978073391e-07 1.9180332699e-06 1.9487794809e-06 1.6282873533e-06 1.6130504957e-06
          1.6008611007e-06 1.7199807926e-06 1.8053980161e-06 1.5793025045e-06 1.7095285134e-06 1.6237934014e-06
          1.6921124629e-06 1.9431013697e-06 1.6329197194e-06 1.7639118927e-06 1.7785620064e-06 1.6679352788e-06
          1.5083618796e-06 1.5511293971e-06 8.3250156819e-07 8.2230383414e-07 9.5685826827e-07 9.0369499938e-07
          9.4869820259e-07 1.7861051184e-06 9.8018318944e-07 8.9260900793e-07 8.8459478268e-07 1.0416288293e-06
          1.0090601687e-06 1.9682370176e-06 1.9261453709e-06 1.837851384e-06 1.66935697e-06 1.7492802693e-06
          1.6243916953e-06 8.4871514549e-07 9.0832819562e-07 8.5501695928e-07 9.1377207626e-07 1.9687748739e-06
          1.7942822829e-06 9.8843022132e-07 8.8148538654e-07 1.6785509286e-06 1.5935340401e-06 8.6102400272e-07
          9.2748505345e-07 1.939614905e-06 1.5848242467e-06 1.0091211801e-06 8.6908045416e-07 1.0615920085e-06
          1.7632847276e-06 1.683575707e-06 8.8374230789e-07 9.3132258467e-07 8.6152342022e-07 1.0619483758e-06
          1.7066393379e-06 1.0541990225e-06 1.035929827e-06 9.7582734195e-07 1.631738733e-06 1.0557184139e-06
          1.5744750584e-06 8.8834702458e-07 1.0145302952e-06 1.8230657127e-06 8.5561512271e-07 1.8587975816e-06
          1.9366621746e-06 9.1757193353e-07 9.2759949364e-07 9.4544321951e-07 8.4775043332e-07 9.2073785953e-07
          9.5510550151e-07 1.9383299367e-06 1.0485319954e-06 1.5717487049e-06 1.6547358903e-06 1.6577429498e-06
          1.7250608814e-06 1.5738321758e-06 9.7268712724e-07 1.5542964552e-06 8.9991777011e-07 9.2525254906e-07
          9.7794961138e-07 1.8916965713e-06 1.0526918375e-06 1.0117710984e-06 8.8701143362e-07 8.9970726142e-07
          1.6645222033e-06 9.2924013654e-07 9.1645075715e-07 8.7259671147e-07 9.6058048778e-07 1.5521806831e-06
          9.0208761822e-07 1.8549879821e-06 1.6152213081e-06 8.8818560129e-07 8.6031514907e-07 1.7739341026e-06
          9.5017036081e-07 1.0369052209e-06 9.6143105734e-07 1.7114464803e-06 1.0053019155e-06 9.8349881426e-07
          9.8255533088e-07 1.9486283915e-06 1.0620007305e-06 8.9450634415e-07 8.7436006568e-07 8.6382325315e-07
        </DataArray>
      </PointData>
      <CellData>
      </CellData>
      <Points>
        <DataArray type="Float32" Name="Points" NumberOfComponents="3" format="ascii" RangeMin="9.7653803808e-06" RangeMax="0.00013194763372">
          1.9637538571e-05 2.3461694582e-05 4.9719221806e-07 1.8830174668e-05 2.3209522624e-05 1.0276726243e-06
          2.0221443265e-05 2.3688993679e-05 1.0055066468e-06 4.9556642807e-06 8.5638857854e-06 1.9313013127e-06
          1.2845405763e-05 1.7004917026e-05 1.7592089989e-06 2.0187006157e-05 2.2879690732e-05 1.7879871166e-06
          1.9295626771e-05 2.3081225663e-05 1.8555767838e-06 4.0633240133e-05 1.5515224732e-05 2.2087178877e-06
          1.3368949112e-05 1.5555338905e-05 2.5422605177e-06 4.9440832299e-06 7.6767428254e-06 3.4621257328e-06
          4.1212828364e-05 1.5275538317e-05 3.7605566376e-06 4.1564482672e-05 1.5726389393e-05 5.2234076975e-06
          3.1435683923e-05 8.1757070802e-06 5.4944002841e-06 1.7200000002e-05 5.7000002016e-06 6.1699997786e-06
          1.4822079493e-06 9.2804793894e-06 6.2848357629e-06 3.2127958548e-05 9.1339661594e-06 6.7971786848e-06
          2.0398936158e-06 1.0868552636e-05 6.9343200266e-06 2.5839894079e-05 1.6651571059e-05 6.5946087489e-06
          1.4600000213e-05 8.9300001491e-06 7.4399999903e-06 4.6127028327e-05 1.0850879335e-05 7.8640960055e-06
          2.5368319257e-05 1.6943347873e-05 8.099189472e-06 4.6659155487e-05 1.2311202227e-05 8.031555808e-06
          2.0312803827e-05 2.3878194042e-05 1.8258912178e-06 1.3710221538e-05 3.8497411879e-05 9.1739144636e-07
          1.4084605027e-05 3.8658516132e-05 2.4663418117e-06 1.4506907974e-05 4.0402093873e-05 2.2928231829e-06
          2.9405788155e-05 4.0643331886e-05 3.5050006773e-06 4.5450135076e-05 4.0812785301e-05 3.6854307837e-06
          4.6287626901e-05 4.1010265704e-05 3.8881876208e-06 3.9052301872e-05 3.9085829485e-05 4.9995214795e-06
          4.5025582949e-05 4.0412640374e-05 4.5842562031e-06 4.6089488023e-05 4.1852275899e-05 4.5597680582e-06
          3.1027480873e-05 4.8784349929e-05 4.8489591791e-06 2.9393959267e-05 3.9737326006e-05 5.0683756854e-06
          4.5092725486e-05 4.1078856157e-05 5.1691336012e-06 4.5951226639e-05 4.1503266402e-05 5.4444276429e-06
          3.9562000893e-05 3.7674573832e-05 5.7618699429e-06 1.7219446818e-05 3.9830076275e-05 5.5217101362e-06
          4.5607408538e-05 4.0784812882e-05 5.8222958614e-06 1.7766697056e-05 4.1331899411e-05 5.6939293245e-06
          4.5758883971e-06 3.2263989851e-05 6.0179791035e-06 3.1736126402e-05 4.9765272706e-05 6.1825494413e-06
          4.6367536015e-06 2.9522847399e-05 6.8847893999e-06 4.7035255193e-06 3.292897236e-05 6.6897800934e-06
          4.8330712161e-06 3.3942695154e-05 6.708346973e-06 5.7846955315e-06 3.29903487e-05 7.006006399e-06
          6.0379647948e-06 3.3776537748e-05 7.3096121014e-06 3.7270925532e-05 3.9505172026e-05 7.4032559496e-06
          3.657428897e-05 3.9915346861e-05 6.9498037192e-06 6.1033874772e-06 2.9199041819e-05 7.9136152635e-06
          4.4360353968e-06 3.2943516999e-05 7.703506526e-06 5.1233987506e-06 3.3544401958e-05 7.5202633525e-06
          3.6951689253e-05 4.0537590394e-05 7.433702649e-06 4.9469758778e-06 3.2740841561e-05 8.4060093286e-06
          3.8026661059e-05 3.991750782e-05 8.2093474703e-06 3.6659559555e-05 4.0548413381e-05 8.279089343e-06
          3.5512886825e-05 4.0628699935e-05 8.9941104306e-06 5.1235015235e-06 2.9689867006e-05 9.1749561761e-06
          3.6912555515e-05 4.0153492591e-05 9.1027577582e-06 3.7900164898e-05 4.0323204303e-05 9.0857620307e-06
          4.5396671339e-05 4.1383995267e-05 4.4021339818e-06 4.0464296944e-06 3.2273303077e-05 7.3899659583e-06
          3.6327968701e-05 4.0569764678e-05 8.7828711912e-06 3.5428231058e-05 6.9699344749e-05 1.7281082592e-06
          3.656095214e-05 6.9504327257e-05 1.7965995767e-06 3.6443732824e-05 7.0842266723e-05 1.8714545149e-06
          3.5886980186e-05 7.2350143455e-05 1.4578490664e-06 3.7975340092e-05 7.0526875788e-05 2.324643674e-06
          3.5832737922e-05 6.9778652687e-05 2.61084665e-06 3.6850509787e-05 6.9499190431e-05 2.6643670026e-06
          3.6570530938e-05 7.0395966759e-05 2.6997163332e-06 3.7406809952e-06 5.7287314121e-05 3.1500471778e-06
          3.5091838072e-05 7.0661306381e-05 3.1729730381e-06 1.5963803889e-05 6.7336775828e-05 3.6483224903e-06
          4.0197114686e-06 7.2794355219e-05 3.7791251088e-06 3.5337063309e-05 7.196200022e-05 4.1576272451e-06
          4.0189279389e-06 7.3492701631e-05 4.4246830839e-06 4.0283371163e-06 5.6505759858e-05 4.8494725888e-06
          4.8981155487e-06 7.3461589636e-05 4.748547326e-06 4.603317393e-06 5.8083678596e-05 5.030417924e-06
          9.2221698651e-06 6.7021668656e-05 5.0814937822e-06 1.5444422388e-05 6.7658133048e-05 5.3054327509e-06
          5.5156920098e-06 7.2960727266e-05 5.1130614338e-06 4.2402161853e-06 7.3069131759e-05 5.2013997447e-06
          3.4046174733e-06 7.3515577242e-05 5.1719707699e-06 1.0077315892e-05 5.4743697547e-05 5.5484151744e-06
          2.3116723241e-05 6.551786646e-05 5.8561249716e-06 4.8936299208e-06 7.3880270065e-05 5.6683315961e-06
          9.2781292551e-06 5.3480711358e-05 6.2382532633e-06 5.8414830164e-06 6.2771505327e-05 6.4181149355e-06
          2.4295699404e-05 6.3503925048e-05 6.4940682023e-06 4.9252830649e-06 7.0341651735e-05 6.2394160523e-06
          4.5442088776e-06 7.236993406e-05 5.8581349549e-06 7.3950041042e-06 6.2161037931e-05 6.6561624408e-06
          9.2650279839e-06 6.7029250204e-05 6.7419200604e-06 9.8453238024e-06 6.8742279836e-05 6.5654899117e-06
          4.2232845772e-06 7.3554321716e-05 6.6936499934e-06 2.8830056181e-05 7.3575429269e-05 6.6233001235e-06
          2.2998257919e-05 6.424212188e-05 7.1224108069e-06 2.8415142879e-05 7.3979295848e-05 7.3710066317e-06
          2.9352993806e-05 7.3945586337e-05 7.3812616392e-06 7.3239266385e-06 6.3476072683e-05 7.897229807e-06
          5.3541539273e-06 7.0673384471e-05 7.8327975643e-06 3.7181347579e-05 7.0311383752e-05 2.028530389e-06
          4.8417136895e-06 7.3099661677e-05 6.1690034272e-06 3.474341429e-05 7.2198468843e-05 2.5127428671e-06
          2.9732926123e-05 7.3985487688e-05 6.3091620177e-06 4.9051464885e-05 8.3690392785e-05 4.9445998229e-07
          4.8278478062e-05 8.4197061369e-05 8.2597409801e-07 4.9413942179e-05 8.4629304183e-05 5.8804022274e-07
          3.838453631e-05 8.4586463345e-05 1.3963388028e-06 4.9789017794e-05 8.5055900854e-05 1.279867206e-06
          9.1416477517e-06 8.3825732872e-05 1.8013896579e-06 4.9149075494e-05 8.4498504293e-05 1.6929119511e-06
          5.210222298e-06 7.7856937423e-05 2.1763742097e-06 4.9437738198e-05 8.5200816102e-05 2.159854148e-06
          4.9304744607e-05 8.4108294686e-05 2.5435053885e-06 3.9447273593e-05 8.4578663518e-05 2.823216164e-06
          6.7953847065e-06 8.6201252998e-05 2.580195769e-06 7.6703472587e-06 8.6439402367e-05 2.8646445571e-06
          5.1064530453e-06 7.9037730757e-05 3.2966825074e-06 6.8920066951e-06 8.6528212705e-05 3.4184156448e-06
          4.3906777137e-05 7.6319214713e-05 3.558136541e-06 5.980977221e-06 8.0581827206e-05 3.5196528643e-06
          8.5865849542e-06 8.4169172624e-05 3.5723433029e-06 7.0912947194e-06 8.7315980636e-05 3.8337716433e-06
          4.0032824472e-05 9.1272733698e-05 3.8876141844e-06 3.8404323277e-05 9.1912668722e-05 3.6380774873e-06
          4.2630155804e-05 7.712036313e-05 4.1090806917e-06 3.9119811845e-05 8.4644452727e-05 4.4695625547e-06
          8.1461639638e-06 8.6331085186e-05 4.4706198423e-06 7.6328497016e-06 8.682499174e-05 4.5094725465e-06
          2.4979666705e-05 8.9329572802e-05 4.4513981265e-06 6.887310974e-06 8.7416934548e-05 4.8438100748e-06
          4.5585838961e-05 7.7937846072e-05 5.3111339184e-06 8.5080309873e-06 8.6912812549e-05 5.1693982641e-06
          2.8768128686e-05 7.4879601016e-05 5.5245805015e-06 3.0116027119e-05 7.4741765275e-05 5.9398062149e-06
          4.7717403504e-05 7.7302116551e-05 5.9105618675e-06 4.6200326324e-05 7.9624187492e-05 5.5045125009e-06
          8.9617233243e-06 8.6272113549e-05 4.2592564569e-06 2.8951260902e-05 7.4527364632e-05 6.4002774707e-06
          2.5439803721e-05 8.9685490821e-05 6.1609403019e-06 1.1921310943e-05 7.6071628428e-05 6.9431721386e-06
          4.6937107982e-05 7.6068994531e-05 6.5840913521e-06 4.766929851e-05 9.5631112345e-05 6.5296712819e-06
          1.2493034774e-05 7.4488649261e-05 7.7982849689e-06 2.9510423701e-05 7.4808573117e-05 7.7110316852e-06
          4.8044068535e-05 7.767626812e-05 7.6174947026e-06 4.8320071073e-05 9.4627714134e-05 7.7998647612e-06
          4.7106859711e-05 9.4534887467e-05 8.8021242846e-06 4.8394958867e-05 8.4083752881e-05 1.7309764644e-06
          6.4304367697e-06 8.6754131189e-05 4.5824699555e-06 5.6798093283e-05 2.342912012e-05 1.9163762772e-06
          5.040178803e-05 1.3436651898e-05 2.4489884254e-06 6.3428204157e-05 1.4952541278e-05 2.2934832486e-06
          5.6017372117e-05 2.2195317797e-05 2.5902754714e-06 5.0361948524e-05 1.2986407455e-05 2.9680390981e-06
          6.3986088207e-05 1.3407881852e-05 3.1278957522e-06 5.1343478845e-05 1.3616571778e-05 3.635062285e-06
          5.8776007791e-05 5.379225513e-06 4.3293839553e-06 5.117191904e-05 1.2816874914e-05 4.2941996981e-06
          5.0234470109e-05 1.3040170415e-05 4.3000886762e-06 5.1438073569e-05 1.3812467841e-05 4.4844805416e-06
          8.0120895291e-05 1.8887323677e-05 4.230696959e-06 9.3606169685e-05 8.0927147792e-06 4.8542983677e-06
          9.2972419225e-05 1.602233533e-05 4.7124681259e-06 8.7195279775e-05 3.3916498978e-06 5.8994160099e-06
          5.5002128647e-05 1.7050288079e-05 4.975831871e-06 8.0408353824e-05 1.8106438802e-05 5.9288358898e-06
          5.8232231822e-05 5.7156753428e-06 6.0643219513e-06 9.3553302577e-05 6.5080389504e-06 6.0473362282e-06
          7.1676884545e-05 1.2394715668e-05 6.2590429479e-06 7.0160225732e-05 1.299070027e-05 6.0266438595e-06
          9.3015369202e-05 1.6030307961e-05 6.3712764131e-06 9.3595110229e-05 1.7741669581e-05 6.1952450778e-06
          8.0982848885e-05 1.9683015125e-05 6.1096270656e-06 5.5144300859e-05 1.7976588424e-05 6.8779359026e-06
          8.7624153821e-05 3.7233846797e-06 7.492797522e-06 9.3636059319e-05 7.7818167483e-06 7.0164901445e-06
          9.3691502116e-05 2.352879892e-05 7.1747281254e-06 5.3854506405e-05 1.6898071408e-05 6.0344659687e-06
          5.1239436289e-05 1.3378936274e-05 2.4103883334e-06 5.0194106734e-05 1.3477129869e-05 3.6184219425e-06
          5.277656237e-05 4.8801390221e-05 1.2491771031e-06 5.3662148275e-05 4.8666926887e-05 1.3272186834e-06
          5.2611019782e-05 4.8166581109e-05 1.9341548523e-06 5.7220710005e-05 3.8487316488e-05 2.4401333576e-06
          5.3738047427e-05 4.8909158068e-05 2.4626572213e-06 5.2433751989e-05 4.8819179938e-05 2.5105005079e-06
          5.2693627367e-05 4.8073103244e-05 2.9450122838e-06 5.3620344261e-05 4.8115180107e-05 3.1518038668e-06
          5.3840765759e-05 4.9121877964e-05 3.3850235468e-06 5.7802732044e-05 3.8513750042e-05 4.232032552e-06
          7.2800001362e-05 4.9700000091e-05 5.4199999795e-06 8.7418338808e-05 4.9597936595e-05 5.6119747569e-06
          9.2445363407e-05 2.4310820663e-05 7.712518709e-06 8.8331042207e-05 2.5134109819e-05 7.7767690527e-06
          8.8851084001e-05 2.6614980015e-05 8.3824097601e-06 5.2501327445e-05 4.8537771363e-05 3.6376220578e-06
          7.4023591878e-05 7.3085080658e-05 4.4153100021e-07 7.4711897469e-05 7.3449264164e-05 7.7147615229e-07
          7.3594448622e-05 7.3557406722e-05 1.0617748103e-06 5.2105588111e-05 5.3305659094e-05 1.8007336848e-06
          9.245097317e-05 5.3516869229e-05 1.9731714929e-06 7.3989140219e-05 7.303385064e-05 1.7328950435e-06
          7.3963492468e-05 7.3739443906e-05 2.316473001e-06 5.2930892707e-05 5.3937554185e-05 3.2914317671e-06
          9.3112619652e-05 5.4432734032e-05 3.2183122585e-06 7.9386758443e-05 7.0376358053e-05 3.0646522191e-06
          7.9565288615e-05 6.9832887675e-05 3.7087527289e-06 7.4399998994e-05 7.1700000262e-05 3.7800000428e-06
          7.6568190707e-05 5.6906403188e-05 4.1911839617e-06 7.474906306e-05 5.7475197536e-05 4.3990121412e-06
          7.9500132415e-05 6.9921101385e-05 4.6714835662e-06 7.926752005e-05 7.0812136983e-05 4.1740490815e-06
          5.2784918807e-05 5.2905630582e-05 4.6535101319e-06 7.6936630649e-05 5.5680731748e-05 5.2157483879e-06
          7.4996656622e-05 5.7542816648e-05 5.2812897593e-06 7.6312535384e-05 5.7528326579e-05 5.2446148402e-06
          7.5633819506e-05 5.801190855e-05 4.9676318667e-06 7.8909659351e-05 7.0542984759e-05 5.3020480664e-06
          8.7963759142e-05 5.1151087973e-05 6.2471763158e-06 7.5197662227e-05 5.7405180996e-05 6.2050189626e-06
          7.6226300735e-05 5.7409310102e-05 6.202034001e-06 7.7189004514e-05 5.7251516409e-05 6.1790656218e-06
          8.0140169302e-05 6.6651402449e-05 6.4037367338e-06 7.5717849541e-05 5.8074583649e-05 6.8112376539e-06
          7.9668054241e-05 6.6943510319e-05 7.9100309449e-06 7.87020399e-05 6.9732908742e-05 4.4782646e-06
          5.0122707762e-05 8.4146166046e-05 1.0327014479e-06 7.4321505963e-05 8.6271080363e-05 1.3934686649e-06
          7.449741679e-05 7.414695574e-05 1.4122075527e-06 5.0700000429e-05 7.5800002378e-05 1.5699999949e-06
          7.4892821431e-05 8.4689236246e-05 2.24796986e-06 9.7414384072e-05 8.7331827672e-05 2.0193951968e-06
          9.8214615718e-05 8.7756227003e-05 2.018163741e-06 9.6957868664e-05 8.7080312369e-05 2.9219593216e-06
          9.7737836768e-05 8.8118191343e-05 2.6407451514e-06 9.7486044979e-05 8.8869550382e-05 2.9752468436e-06
          9.7090116469e-05 8.7936132331e-05 3.2832363104e-06 8.2209917309e-05 8.9103479695e-05 3.779086228e-06
          9.7543066659e-05 8.7632673967e-05 4.1161370063e-06 7.1077913162e-05 9.4283750514e-05 4.4293542487e-06
          7.2559239925e-05 9.3701652077e-05 4.6563386604e-06 7.0544017944e-05 8.8270026026e-05 5.2787841014e-06
          8.347244875e-05 8.8886787125e-05 5.079343282e-06 7.1107504482e-05 8.9788009063e-05 5.2224891078e-06
          8.7226886535e-05 7.8779521573e-05 5.7528400248e-06 7.5292402471e-05 9.3951108283e-05 5.6639032664e-06
          8.6358035333e-05 7.7169977885e-05 6.1428077061e-06 8.6847700004e-05 7.7944227087e-05 5.982795301e-06
          8.5424348072e-05 7.8077500802e-05 6.0396046138e-06 7.1560338256e-05 9.113260603e-05 6.2032213464e-06
          8.551220526e-05 7.7490745753e-05 6.856015716e-06 8.6481093604e-05 7.7796168625e-05 6.8430745159e-06
          8.6279673269e-05 7.8704382759e-05 6.8624444793e-06 8.7097585492e-05 7.8981356637e-05 6.7726709858e-06
          8.2641192421e-05 8.9271496108e-05 6.5080321292e-06 5.4219799495e-05 9.4772360171e-05 6.5797057687e-06
          5.4757223552e-05 9.5487623184e-05 6.7538926487e-06 5.2787483583e-05 9.5581628557e-05 6.741485322e-06
          5.3635569202e-05 9.5520306786e-05 6.5216927396e-06 9.1332964075e-05 8.3345097664e-05 7.0661039899e-06
          9.1981404694e-05 8.48873824e-05 7.2267507676e-06 6.4106054197e-05 8.9864035544e-05 7.3692758633e-06
          7.5239586295e-05 9.3845213996e-05 7.2324496614e-06 5.372972737e-05 9.6337236755e-05 7.4126428444e-06
          9.3486094556e-05 8.4433188022e-05 7.5034154179e-06 7.6139076555e-05 9.510977543e-05 7.9346818893e-06
          5.3570816817e-05 9.5488663646e-05 7.5863608799e-06 5.4630130762e-05 9.5778937975e-05 7.6653832366e-06
          9.1802576208e-05 8.490664186e-05 8.154545867e-06 9.1619040177e-05 8.3577840996e-05 8.6674763224e-06
          9.267564019e-05 8.4394698206e-05 8.6188656496e-06 9.3650436611e-05 8.4480430814e-05 8.5560850493e-06
          9.2510541435e-05 8.5176950961e-05 9.2593290901e-06 6.4093692345e-05 8.8916589448e-05 9.0041567091e-06
          9.3260438007e-05 8.452678594e-05 9.4771557997e-06 9.2669077276e-05 8.4640632849e-05 7.7173908721e-06
          7.4558993219e-05 7.4531773862e-05 2.1663354346e-06 7.4954645243e-05 7.4202791438e-05 1.0624679589e-06
        </DataArray>
      </Points>
      <Cells>
        <DataArray type="Int64" Name="connectivity" format="ascii" RangeMin="0" RangeMax="281">
          0 1 2 3 4 5
          6 7 8 9 10 11
          12 13 14 15 16 17
          18 19 20 21 22 23
          24 25 26 27 28 29
          30 31 32 33 34 35
          36 37 38 39 40 41
          42 43 44 45 46 47
          48 49 50 51 52 53
          54 55 56 57 58 59
          60 61 62 63 64 65
          66 67 68 69 70 71
          72 73 74 75 76 77
          78 79 80 81 82 83
          84 85 86 87 88 89
          90 91 92 93 94 95
          96 97 98 99 100 101
          102 103 104 105 106 107
          108 109 110 111 112 113
          114 115 116 117 118 119
          120 121 122 123 124 125
          126 127 128 129 130 131
          132 133 134 135 136 137
          138 139 140 141 142 143
          144 145 146 147 148 149
          150 151 152 153 154 155
          156 157 158 159 160 161
          162 163 164 165 166 167
          168 169 170 171 172 173
          174 175 176 177 178 179
          180 181 182 183 184 185
          186 187 188 189 190 191
          192 193 194 195 196 197
          198 199 200 201 202 203
          204 205 206 207 208 209
          210 211 212 213 214 215
          216 217 218 219 220 221
          222 223 224 225 226 227
          228 229 230 231 232 233
          234 235 236 237 238 239
          240 241 242 243 244 245
          246 247 248 249 250 251
          252 253 254 255 256 257
          258 259 260 261 262 263
          264 265 266 267 268 269
          270 271 272 273 274 275
          276 277 278 279 280 281
        </DataArray>
        <DataArray type="Int64" Name="offsets" format="ascii" RangeMin="1" RangeMax="282">
          1 2 3 4 5 6
          7 8 9 10 11 12
          13 14 15 16 17 18
          19 20 21 22 23 24
          25 26 27 28 29 30
          31 32 33 34 35 36
          37 38 39 40 41 42
          43 44 45 46 47 48
          49 50 51 52 53 54
          55 56 57 58 59 60
          61 62 63 64 65 66
          67 68 69 70 71 72
          73 74 75 76 77 78
          79 80 81 82 83 84
          85 86 87 88 89 90
          91 92 93 94 95 96
          97 98 99 100 101 102
          103 104 105 106 107 108
          109 110 111 112 113 114
          115 116 117 118 119 120
          121 122 123 124 125 126
          127 128 129 130 131 132
          133 134 135 136 137 138
          139 140 141 142 143 144
          145 146 147 148 149 150
          151 152 153 154 155 156
          157 158 159 160 161 162
          163 164 165 166 167 168
          169 170 171 172 173 174
          175 176 177 178 179 180
          181 182 183 184 185 186
          187 188 189 190 191 192
          193 194 195 196 197 198
          199 200 201 202 203 204
          205 206 207 208 209 210
          211 212 213 214 215 216
          217 218 219 220 221 222
          223 224 225 226 227 228
          229 230 231 232 233 234
          235 236 237 238 239 240
          241 242 243 244 245 246
          247 248 249 250 251 252
          253 254 255 256 257 258
          259 260 261 262 263 264
          265 266 267 268 269 270
          271 272 273 274 275 276
          277 278 279 280 281 282
        </DataArray>
        <DataArray type="UInt8" Name="types" format="ascii" RangeMin="1" RangeMax="1">
          1 1 1 1 1 1
          1 1 1 1 1 1
          1 1 1 1 1 1
          1 1 1 1 1 1
          1 1 1 1 1 1
          1 1 1 1 1 1
          1 1 1 1 1 1
          1 1 1 1 1 1
          1 1 1 1 1 1
          1 1 1 1 1 1
          1 1 1 1 1 1
          1 1 1 1 1 1
          1 1 1 1 1 1
          1 1 1 1 1 1
          1 1 1 1 1 1
          1 1 1 1 1 1
          1 1 1 1 1 1
          1 1 1 1 1 1
          1 1 1 1 1 1
          1 1 1 1 1 1
          1 1 1 1 1 1
          1 1 1 1 1 1
          1 1 1 1 1 1
          1 1 1 1 1 1
          1 1 1 1 1 1
          1 1 1 1 1 1
          1 1 1 1 1 1
          1 1 1 1 1 1
          1 1 1 1 1 1
          1 1 1 1 1 1
          1 1 1 1 1 1
          1 1 1 1 1 1
          1 1 1 1 1 1
          1 1 1 1 1 1
          1 1 1 1 1 1
          1 1 1 1 1 1
          1 1 1 1 1 1
          1 1 1 1 1 1
          1 1 1 1 1 1
          1 1 1 1 1 1
          1 1 1 1 1 1
          1 1 1 1 1 1
          1 1 1 1 1 1
          1 1 1 1 1 1
          1 1 1 1 1 1
          1 1 1 1 1 1
          1 1 1 1 1 1
        </DataArray>
      </Cells>
    </Piece>
  </UnstructuredGrid>
</VTKFile>
