<?xml version="1.0"?>
<VTKFile type="UnstructuredGrid" version="0.1" byte_order="LittleEndian" header_type="UInt32" compressor="vtkZLibDataCompressor">
  <UnstructuredGrid>
    <Piece NumberOfPoints="1806" NumberOfCells="1806">
      <PointData>
        <DataArray type="Int32" Name="id" format="ascii" RangeMin="1" RangeMax="1806">
          792 477 298 1166 133 1051
          791 624 668 19 991 887
          623 206 938 793 529 308
          1167 936 605 50 59 134
          625 385 1380 1114 531 244
          937 1434 626 1047 1654 766
          666 343 1168 1050 1113 989
          406 589 669 745 123 845
          241 484 174 990 794 318
          550 49 457 888 97 495
          1767 42 324 15 44 22
          131 118 474 3 1048 264
          196 1295 1296 1297 1298 1299
          1300 1378 1379 1430 1432 1433
          1460 530 1488 1490 1541 1574
          1591 1652 1653 1702 1705 1706
          485 1760 1761 1766 1002 1179
          203 75 459 847 844 886
          40 276 460 992 1053 592
          748 1052 93 369 593 430
          993 386 994 842 1170 245
          408 1115 627 1226 1 939
          594 671 749 461 78 889
          266 795 407 1054 890 150
          117 628 1055 532 175 1057
          672 54 362 629 497 797
          675 892 711 24 475 256
          798 796 370 670 891 1056
          595 109 286 533 996 940
          225 7 1118 257 1234 389
          673 387 215 995 674 363
          1172 388 1058 561 207 1119
          1109 106 676 1059 1227 800
          1116 1171 124 119 799 634
          677 433 434 597 371 141
          1173 62 534 1229 1117 562
          1122 1120 895 633 176 432
          1121 501 998 893 941 999
          246 848 373 849 329 596
          498 894 535 1000 258 435
          1174 630 20 84 750 997
          267 1060 1175 713 499 805
          804 500 712 372 1228 802
          310 803 632 1062 1001 1177
          898 1176 801 154 1235 502
          1125 208 598 850 806 478
          1061 901 504 1123 631 1124
          436 751 198 678 220 309
          896 536 897 752 374 188
          899 277 161 1126 462 807
          166 1230 344 808 503 942
          1233 1231 61 390 900 1063
          299 1178 679 137 1232 311
          680 1301 1302 1303 1304 1305
          1306 1307 1308 1309 1310 1311
          1312 1313 1372 1381 1382 1383
          1384 1385 1386 1387 1388 1389
          1390 1391 1392 1393 1169 1431
          1435 1436 1437 1438 1439 1440
          1441 1442 1484 1492 1493 1494
          1495 1496 1497 1498 1499 1489
          1491 1542 1543 1544 1545 1546
          1547 1548 1549 1550 1551 1552
          1592 1593 1594 1595 1596 1597
          1598 1599 1600 1601 1655 1656
          1657 1658 1659 1660 1661 1662
          1663 1664 1707 1708 1709 1710
          1711 1712 1713 1714 1715 1716
          1717 1718 1762 1768 1769 1770
          1771 1772 1773 1774 1775 313
          1245 507 943 1180 851 809
          209 121 635 636 753 1003
          1247 177 391 268 1181 946
          32 505 599 312 945 944
          1236 682 51 754 537 479
          506 1005 411 563 1248 1065
          1004 811 1064 681 1066 77
          1127 947 810 1006 601 275
          538 813 1069 325 746 755
          226 1067 330 812 85 409
          948 1182 600 463 60 148
          314 1237 508 235 714 105
          540 1238 410 315 1068 1239
          756 186 300 852 539 81
          167 1110 1070 1007 221 950
          853 345 854 541 437 949
          547 151 92 1246 565 67
          375 903 907 227 904 18
          1165 1224 57 759 438 542
          902 1240 412 1071 602 509
          824 569 192 160 216 129
          145 135 1072 637 1129 1128
          856 814 1074 364 82 683
          228 1241 905 716 718 1073
          715 855 14 26 283 883
          1244 717 346 951 464 113
          857 480 1562 393 89 1243
          288 269 1008 764 906 1190
          458 348 543 12 690 1314
          1315 1316 1317 1318 1319 1502
          1321 1322 1323 1324 1373 1394
          1395 1396 1397 1398 1399 1242
          1401 1404 1443 1444 1445 1446
          1447 1448 1449 347 1485 1500
          1501 1512 1538 1553 1554 1555
          1556 1557 1558 1559 1561 1602
          1603 1604 1605 1606 1610 1608
          1609 237 1649 1665 1666 1667
          1668 1719 1720 1721 1722 1723
          1724 1725 1726 1727 1728 1784
          1320 1763 1776 1777 1778 1779
          1780 1783 1511 287 1134 859
          908 544 1009 909 566 511
          111 37 761 1130 317 229
          719 316 210 953 510 860
          911 858 1077 546 247 34
          910 816 638 366 1076 1075
          413 222 1010 545 90 270
          1457 640 481 242 365 862
          567 513 1184 1513 912 955
          1250 956 367 350 1739 1260
          168 439 1185 641 351 603
          762 79 818 1013 392 1186
          187 1249 199 101 1791 817
          1079 236 1011 643 604 331
          1251 1012 1080 1261 514 157
          515 2 126 259 1082 217
          142 69 1187 1402 1014 349
          649 278 332 568 1112 564
          230 863 1083 35 46 560
          642 289 864 394 684 644
          1131 271 958 1252 959 1081
          115 1111 622 155 757 1740
          149 758 517 686 822 496
          934 86 440 819 685 1188
          1253 960 1259 483 820 414
          1790 1085 72 1133 416 821
          482 720 415 1132 200 721
          1254 1084 1256 182 763 1191
          1015 914 765 691 913 352
          1262 961 39 1255 441 865
          1016 645 1189 136 333 13
          384 442 301 353 1257 687
          647 516 590 48 120 1263
          688 23 158 1405 1258 181
          465 204 646 189 1086 1135
          866 211 549 689 1017 96
          341 30 571 648 1137 99
          1136 95 548 823 962 570
          710 1456 1458 354 304 1325
          1326 1327 1328 1329 1330 1331
          1332 1333 1334 1335 1560 1374
          1400 1403 1450 1451 1452 1453
          1454 1455 1789 1486 1503 1504
          1505 1506 1507 1508 1509 1510
          1539 1564 1565 1566 1567 1568
          1569 1570 1571 1572 952 1563
          1183 1611 1612 1613 1614 1615
          1616 1617 1618 1619 1620 1621
          1622 1623 1648 1607 1669 1670
          1671 1672 1673 1674 1701 1792
          1730 1731 1732 1733 1734 1735
          1736 1737 1738 1764 1786 1787
          1788 1729 1785 1781 1782 279
          1018 1265 1264 1192 127 867
          789 43 723 418 466 572
          692 1138 56 417 110 218
          355 1139 395 405 73 476
          38 573 1461 915 722 1193
          1140 868 767 6 1019 1020
          650 280 33 825 869 574
          223 575 1267 965 248 179
          47 368 1266 963 964 41
          146 747 305 159 377 87
          91 17 173 88 265 935
          169 116 306 58 197 243
          102 884 1294 1336 1337 1338
          1375 1406 1407 1408 1409 1459
          1742 1487 1514 1573 1624 1625
          1650 1675 1676 10 190 1741
          1793 1794 1795 846 518 107
          1194 606 724 396 238 916
          11 1141 870 357 1087 693
          486 1021 1142 918 607 290
          917 1143 1195 1088 871 576
          1196 966 334 1144 419 1145
          1410 843 1022 1089 162 1023
          1525 1678 1090 420 487 694
          768 191 249 651 608 1796
          103 726 138 826 827 1268
          212 1091 770 489 272 551
          1517 467 772 319 45 284
          130 1049 1679 36 152 1339
          1340 1341 1342 1462 1463 1464
          1465 1466 1470 1515 1516 1575
          1576 1577 1578 1583 1626 1627
          1651 1677 1743 185 920 742
          1281 285 1024 398 1093 695
          725 519 1279 250 443 652
          1197 224 356 790 696 1025
          577 397 1094 609 1269 25
          1026 444 828 967 1198 55
          612 873 335 921 968 610
          163 1270 488 80 147 874
          468 1271 260 611 922 74
          697 988 193 727 923 1096
          1146 378 1027 1028 1147 1148
          5 552 422 1280 1272 578
          1095 423 1029 730 445 1199
          291 969 183 1149 326 320
          4 379 1097 164 108 654
          1151 1203 261 1200 424 1273
          273 653 490 446 184 1201
          591 302 970 520 613 579
          773 132 829 971 700 831
          728 140 614 972 1030 1274
          777 1150 830 231 1275 832
          775 774 1152 342 9 293
          924 336 1153 448 213 729
          76 778 52 447 698 1276
          731 491 1204 1277 294 779
          470 292 1278 699 521 925
          776 973 833 139 1202 195
          492 1205 469 780 1343 1344
          1345 1346 1347 1348 1349 1350
          1376 1411 1412 1413 1414 1415
          1416 66 1467 1468 1469 1473
          1471 1472 1518 1519 1520 1521
          1522 1523 1524 1582 769 771
          1540 1579 1580 1581 655 1590
          1628 1629 1630 1631 1632 1633
          1634 1635 1680 1688 1682 1683
          1684 1685 1686 1687 919 1744
          1745 1746 1747 1748 1749 1750
          1751 1752 1797 1798 1799 872
          1092 1206 449 781 743 1209
          701 1098 450 21 1371 376
          104 1647 1099 251 734 125
          784 709 875 1154 471 64
          1207 429 1031 65 1283 1282
          783 782 1208 733 29 639
          122 656 974 581 68 281
          1284 527 1210 321 580 667
          399 876 702 262 736 170
          239 421 327 156 975 1211
          1212 553 554 1155 1100 380
          1287 657 400 735 282 451
          1285 381 1286 926 737 877
          358 328 658 1032 1288 703
          834 232 452 927 472 1289
          295 878 1213 1225 28 219
          523 582 1033 979 976 980
          738 522 977 8 929 615
          785 1216 978 338 661 555
          583 1214 178 94 205 705
          659 401 1215 1217 1101 337
          382 63 1037 83 53 255
          1038 556 836 253 618 1036
          1290 704 1039 835 144 114
          928 1034 402 786 454 404
          1157 1158 383 1102 453 1035
          359 1103 983 665 981 660
          425 201 584 234 837 263
          617 1291 1156 194 274 930
          1292 663 839 664 153 31
          431 879 252 585 982 70
          1219 787 403 455 233 1161
          1040 931 473 1041 1218 426
          165 172 706 662 741 1293
          708 1222 27 360 1104 619
          1159 171 707 1162 427 616
          296 558 739 984 1044 240
          214 1106 71 428 361 528
          557 100 1105 586 740 303
          1220 788 1160 838 744 840
          881 1223 112 1221 525 588
          98 985 180 880 885 128
          1042 16 493 621 339 143
          932 323 1043 1107 732 933
          1045 1046 254 559 322 620
          882 841 524 340 987 1163
          526 307 587 986 1108 297
          494 202 456 1164 815 1681
          1351 1352 1353 1354 1355 1356
          1357 1358 1359 1360 1361 1362
          1363 1364 1365 1366 1367 1368
          1369 1370 1377 1417 1418 1419
          1420 1421 1422 1423 1424 1425
          1426 1427 1428 1429 1078 1474
          1475 1476 1477 1478 1479 1480
          1481 1482 1483 861 1526 1527
          1528 1529 1530 1531 1532 1533
          1534 1535 1536 1537 954 512
          1584 1585 1586 1587 1588 1589
          1636 1637 1638 1639 1640 1641
          1642 1643 1644 1645 1646 1689
          1690 1691 1692 1693 1694 1695
          1696 1697 1698 1699 1700 1703
          1704 1753 1754 1755 1756 1757
          1758 1759 760 1765 1800 1801
          1802 1803 1804 1805 1806 957
        </DataArray>
        <DataArray type="Int32" Name="type" format="ascii" RangeMin="1" RangeMax="2">
          2 2 2 2 2 2
          2 2 2 1 2 2
          2 2 2 2 2 2
          2 2 2 1 1 1
          2 2 2 2 2 2
          2 2 2 1 2 2
          1 2 2 2 2 2
          2 1 2 1 1 2
          1 2 2 2 2 2
          2 1 1 2 1 1
          2 1 1 1 1 1
          1 1 1 1 1 1
          1 2 2 2 2 2
          2 2 2 1 2 2
          2 2 2 2 2 2
          2 2 2 1 2 2
          2 1 1 2 2 2
          1 2 2 2 2 2
          1 2 2 2 2 2
          2 2 1 2 2 1
          2 2 2 1 2 2
          2 2 2 2 1 2
          2 2 2 2 2 2
          2 2 2 2 2 1
          1 2 2 2 2 2
          2 1 1 2 2 2
          2 2 2 1 1 2
          2 2 2 2 2 2
          2 2 2 2 2 2
          2 1 2 2 2 2
          2 2 1 2 2 1
          2 2 2 2 2 2
          1 2 2 2 2 2
          2 2 2 1 2 2
          2 2 2 2 2 2
          2 2 2 2 2 2
          2 2 2 2 2 2
          2 2 2 2 2 2
          2 2 2 2 2 2
          2 2 2 2 2 2
          2 2 1 1 2 2
          2 2 2 2 2 2
          2 2 2 2 2 2
          2 2 2 2 2 2
          2 2 2 2 2 2
          2 2 2 2 2 2
          2 2 2 2 2 2
          2 2 2 2 2 2
          2 2 2 2 2 2
          2 2 2 2 2 2
          1 2 2 2 2 2
          2 2 2 2 2 2
          2 2 2 2 2 2
          2 2 2 2 2 2
          2 2 2 2 2 2
          2 2 1 2 2 2
          2 2 2 2 2 2
          2 2 2 2 2 1
          2 2 2 2 2 2
          2 2 1 2 2 2
          2 2 2 2 2 2
          2 2 2 2 2 2
          2 2 2 2 2 2
          2 2 2 2 2 2
          2 2 2 2 2 2
          2 2 2 2 2 2
          2 2 2 2 2 2
          2 2 2 2 2 2
          2 2 1 2 2 2
          2 2 2 2 2 2
          2 2 2 2 2 2
          2 2 2 2 2 2
          2 2 2 2 2 2
          1 2 2 2 2 2
          2 2 1 2 2 2
          2 2 2 2 2 2
          2 2 2 2 2 2
          2 2 2 2 2 1
          2 2 2 1 1 2
          2 2 2 2 1 2
          2 2 2 2 1 2
          2 2 2 2 2 2
          2 2 2 2 2 2
          2 1 2 2 2 1
          1 1 2 2 2 2
          2 2 2 2 2 2
          2 1 1 2 2 2
          2 2 2 2 2 1
          1 1 1 2 2 2
          2 2 2 2 2 2
          2 2 1 1 1 1
          1 2 2 2 2 2
          2 2 2 1 1 2
          2 2 2 2 2 2
          2 2 1 1 1 1
          2 2 2 2 2 2
          2 2 2 2 1 2
          2 2 2 2 2 2
          1 2 2 1 2 2
          2 2 2 2 2 2
          2 2 2 2 1 2
          2 2 2 2 2 2
          2 2 2 2 2 2
          2 2 2 2 1 2
          2 2 1 2 2 2
          2 2 2 2 2 2
          2 2 2 2 2 2
          2 2 1 2 2 2
          2 2 2 2 2 2
          2 2 2 2 2 2
          2 1 2 2 2 2
          2 2 2 2 2 2
          2 2 2 2 2 2
          2 1 2 2 2 2
          2 2 2 2 2 2
          2 2 2 2 2 1
          2 2 2 1 2 2
          2 2 2 2 1 2
          2 2 2 1 1 2
          2 2 2 2 2 2
          2 2 1 2 2 2
          1 2 2 2 2 2
          2 2 2 2 2 2
          1 2 2 1 2 2
          2 2 2 2 2 2
          2 2 2 2 2 2
          2 1 1 2 2 1
          2 2 2 2 2 2
          2 2 2 2 1 2
          2 2 2 1 1 1
          2 2 2 2 2 2
          2 2 2 2 2 2
          1 1 1 2 2 2
          2 2 2 2 2 1
          1 1 2 2 2 2
          2 2 2 2 2 2
          2 2 2 2 2 2
          2 2 2 2 2 2
          2 2 2 2 2 2
          2 2 2 2 2 2
          2 2 1 2 2 2
          2 2 2 2 2 1
          1 2 2 2 2 2
          2 2 1 1 1 2
          2 1 2 2 2 2
          2 1 2 2 2 2
          2 2 2 2 2 1
          1 1 2 2 2 1
          2 1 2 2 2 2
          1 2 2 2 1 2
          2 2 2 2 2 2
          2 2 2 2 2 1
          2 2 2 2 2 2
          2 2 2 1 2 2
          2 2 2 2 2 2
          1 2 2 2 2 2
          2 2 2 2 2 2
          2 2 2 2 2 2
          2 2 2 2 2 2
          2 2 2 2 2 2
          2 2 2 2 2 2
          2 2 2 2 2 2
          2 2 2 1 2 2
          2 2 2 2 2 2
          2 2 2 2 2 2
          1 1 2 2 2 2
          2 2 1 2 1 1
          2 2 2 1 2 1
          1 2 2 2 2 2
          2 2 2 1 2 2
          2 2 1 2 2 2
          2 2 2 2 2 1
          1 1 2 2 2 1
          1 1 1 2 2 1
          1 1 1 1 1 1
          1 1 1 1 1 1
          1 1 1 2 2 2
          1 2 2 2 2 2
          2 1 2 2 2 2
          1 2 2 1 2 2
          2 2 2 2 2 2
          2 2 2 2 2 2
          1 2 2 2 2 2
          2 2 2 2 2 2
          2 2 2 2 2 2
          2 2 2 2 2 2
          2 1 2 2 2 2
          2 2 2 2 2 2
          2 2 2 2 2 2
          1 2 2 2 2 2
          2 2 2 2 2 2
          2 2 2 2 1 1
          1 1 2 1 1 2
          2 2 2 2 2 2
          2 2 2 2 2 2
          2 2 2 2 2 2
          1 2 2 2 2 2
          2 1 2 2 2 2
          2 2 2 2 2 2
          2 1 2 1 2 2
          2 2 2 2 2 1
          2 2 2 2 2 1
          2 2 2 2 2 2
          2 2 2 1 1 2
          2 2 2 2 2 2
          2 1 1 2 2 2
          2 2 2 2 2 2
          1 2 2 2 2 2
          2 2 2 2 2 2
          2 2 2 2 1 2
          1 2 2 2 2 2
          2 2 2 2 2 2
          2 2 2 2 2 2
          1 2 2 2 2 2
          2 2 2 2 2 2
          2 1 2 2 2 2
          2 2 2 2 2 2
          2 2 2 1 1 2
          2 2 2 2 2 2
          2 2 1 2 2 2
          2 2 2 2 2 2
          2 2 2 2 2 2
          2 2 2 2 2 2
          2 2 2 2 2 2
          2 2 2 2 2 2
          1 2 2 2 2 2
          2 2 2 2 2 2
          2 2 2 2 2 2
          2 2 2 2 2 2
          1 2 2 2 2 1
          2 2 2 2 2 2
          2 2 2 2 2 2
          2 2 2 2 2 2
          2 2 2 2 2 2
          2 2 2 2 2 2
          2 2 2 2 2 2
          2 2 2 1 2 2
          1 2 2 2 2 2
          2 2 2 2 2 2
          2 2 2 2 2 2
          2 2 2 2 1 2
          2 2 2 2 2 2
          2 1 2 2 2 1
          2 2 2 2 2 2
          2 2 1 2 2 2
          2 2 2 2 2 2
          2 2 2 2 2 2
          2 2 2 2 2 2
          2 1 2 2 2 2
          2 2 2 2 2 2
          2 2 2 1 1 1
          2 2 2 2 2 2
          2 2 2 1 2 2
          2 2 2 2 2 2
          2 2 2 1 1 2
          2 2 2 2 2 2
          2 2 2 1 1 1
          2 2 2 2 2 2
          2 2 2 2 2 2
          2 2 2 2 2 2
          2 2 2 2 2 2
          2 2 2 2 2 2
          2 2 2 2 2 2
          2 2 2 1 2 2
          2 2 2 2 1 1
          1 2 2 2 2 2
          2 2 2 2 2 2
          2 2 2 2 2 2
          2 2 2 2 2 2
          2 2 1 2 2 2
          2 2 2 2 2 2
          2 2 2 2 2 2
          2 2 2 2 2 1
          2 1 2 2 2 2
          2 2 2 2 2 2
          2 2 2 2 2 2
          1 2 2 2 1 2
          2 1 2 2 2 2
          2 2 2 2 2 2
          2 2 2 2 2 2
          2 2 2 2 2 2
          2 1 2 2 2 2
          2 2 2 2 2 2
          2 2 2 2 2 2
          2 2 2 2 2 2
          2 2 2 2 2 2
          2 2 1 2 2 2
          2 2 2 2 2 2
          2 2 2 2 2 2
          2 2 2 2 2 2
          2 2 2 2 2 2
          2 2 2 2 2 2
          2 2 2 2 2 2
          2 2 2 2 2 2
          2 2 2 2 2 2
          2 2 2 2 2 2
          2 2 2 2 2 2
          2 2 2 2 2 1
          1 2 2 2 2 2
          2 2 2 1 2 2
          2 2 2 2 2 2
        </DataArray>
        <DataArray type="Float64" Name="diameter" format="ascii" RangeMin="7.7818172756e-07" RangeMax="1.967490251e-06">
          9.2544062395e-07 9.3889885222e-07 9.9248192453e-07 9.2860307076e-07 1.0114340599e-06 9.5666708367e-07
          9.9655844115e-07 9.2866181645e-07 1.0314329149e-06 1.6437696242e-06 1.0348967228e-06 8.886285054e-07
          9.6743580524e-07 9.2104504947e-07 8.8042562849e-07 9.3873087403e-07 9.6010337635e-07 8.7757840205e-07
          1.0250824119e-06 8.9484492953e-07 8.2882423472e-07 1.6739952707e-06 1.7489977146e-06 1.5985418263e-06
          1.031571019e-06 7.9896741087e-07 8.9838715456e-07 9.9851760608e-07 1.0325617163e-06 8.7991290169e-07
          1.0160190432e-06 8.8730624006e-07 1.0068973533e-06 1.6757200287e-06 8.7022551514e-07 1.0084058604e-06
          1.6946640421e-06 8.7887858296e-07 9.2575387477e-07 9.9635096147e-07 9.8693534879e-07 8.609772709e-07
          9.3178666623e-07 1.6511216542e-06 1.0061866087e-06 1.7463657914e-06 1.8273541899e-06 9.6764374392e-07
          1.8009849995e-06 8.5712295768e-07 1.0206605521e-06 1.0147193831e-06 9.1721926051e-07 9.5966868697e-07
          9.586591225e-07 1.8004581577e-06 1.7494949367e-06 1.0479850028e-06 1.6492008415e-06 1.7287698086e-06
          8.4626906912e-07 1.8849888409e-06 1.79045416e-06 1.6608767635e-06 1.4941717638e-06 1.725349418e-06
          1.6551313613e-06 1.8180711338e-06 1.8221785594e-06 1.9246952671e-06 1.6531914157e-06 1.8272720711e-06
          1.905823432e-06 9.0442202922e-07 9.3786833e-07 9.3244745205e-07 9.0195853404e-07 9.875402666e-07
          9.2590512046e-07 9.442667935e-07 8.7946887665e-07 1.6224584511e-06 9.4371835424e-07 8.9793606645e-07
          8.9655152949e-07 1.0206106919e-06 9.0393737991e-07 9.0366380487e-07 8.3118755946e-07 8.9475648927e-07
          8.1028000498e-07 8.3184790407e-07 8.9539749865e-07 1.4955379441e-06 8.1967142081e-07 8.3596166376e-07
          9.3775896976e-07 1.634852468e-06 1.4695479178e-06 8.7523383359e-07 8.8560250702e-07 9.7263518396e-07
          1.8327889322e-06 8.2701345327e-07 8.7589967593e-07 9.4092621565e-07 9.315876905e-07 8.8177747289e-07
          1.7432541111e-06 9.5564119039e-07 8.3508508886e-07 1.0103760154e-06 1.030379973e-06 8.4464976593e-07
          9.6000210912e-07 8.2809508735e-07 1.6076584841e-06 9.8348516109e-07 8.6944511502e-07 1.8410881084e-06
          9.8863418044e-07 8.7669849455e-07 9.9489192755e-07 1.599845303e-06 9.6352411945e-07 9.9389388058e-07
          8.7195595559e-07 1.0220446073e-06 8.3373397986e-07 8.9754960482e-07 1.7706048825e-06 1.0220890386e-06
          9.7219451443e-07 9.0495209306e-07 9.4901788933e-07 8.0093452716e-07 9.3817592227e-07 8.3953184438e-07
          8.927485714e-07 9.1805260362e-07 9.5730413928e-07 1.0119043397e-06 9.4458833559e-07 1.9549754139e-06
          1.81013331e-06 9.2616769144e-07 8.1195818332e-07 8.0866483621e-07 9.9248167818e-07 7.8766062327e-07
          9.2782728406e-07 1.8643859535e-06 1.7708845364e-06 1.0174342348e-06 1.0465577983e-06 9.4753296024e-07
          9.7891200104e-07 9.271759273e-07 9.4303436998e-07 1.6739411538e-06 1.7380597352e-06 9.4338567261e-07
          8.9622584493e-07 8.7423241743e-07 8.2389030031e-07 9.4493037748e-07 1.0411368794e-06 1.0215865967e-06
          9.3220565257e-07 9.580605908e-07 9.2720014838e-07 8.6530816203e-07 9.7132603627e-07 9.9031052751e-07
          9.3553844997e-07 1.5574622629e-06 9.869035603e-07 1.0440780194e-06 9.9086657206e-07 8.7482706568e-07
          1.0110356404e-06 9.7063126514e-07 1.8769936401e-06 1.0359258591e-06 9.6070707023e-07 1.7828616183e-06
          1.03370748e-06 9.3100360678e-07 1.042009583e-06 8.9112457268e-07 8.9486419378e-07 8.8662744166e-07
          1.6219391777e-06 1.0053550509e-06 9.3380181565e-07 8.9062651611e-07 9.4263377727e-07 9.3438328453e-07
          9.4337065014e-07 9.5492593288e-07 1.0195743001e-06 1.5996454664e-06 8.3753302492e-07 8.6332042732e-07
          1.0223766952e-06 8.8828719731e-07 9.4126058535e-07 8.4793215081e-07 9.1833471239e-07 1.0363539375e-06
          1.012468494e-06 9.2479551861e-07 8.9688768773e-07 9.7996867015e-07 1.0227547993e-06 8.1621133562e-07
          9.9897972358e-07 7.9481201853e-07 8.3056899091e-07 9.2945842178e-07 9.1165627777e-07 9.5630371451e-07
          9.7899819298e-07 8.9453708424e-07 9.694451196e-07 8.8777255277e-07 8.3635146383e-07 9.0168042514e-07
          8.8539401323e-07 9.3136995251e-07 9.4300613645e-07 8.9196630821e-07 1.0279906708e-06 8.6561414254e-07
          9.1654786142e-07 8.5295305082e-07 9.9316180183e-07 1.0096127516e-06 9.1628142497e-07 8.9731170081e-07
          9.7022979975e-07 9.1494215563e-07 1.8527457004e-06 1.5834416174e-06 9.4530657707e-07 9.8871915723e-07
          9.2024173483e-07 9.7288745579e-07 9.2765431516e-07 9.4905466914e-07 9.8931116437e-07 9.1735826328e-07
          9.2653573449e-07 1.0172867274e-06 9.6014978554e-07 8.7413196367e-07 9.4541104485e-07 1.045210025e-06
          9.4571943305e-07 8.5516807264e-07 1.0348330136e-06 8.1985617227e-07 9.8957609434e-07 9.2387468764e-07
          9.0067027909e-07 9.3780124901e-07 9.7707857068e-07 8.2304520628e-07 9.9825807471e-07 8.3606904474e-07
          1.010008775e-06 8.2068167592e-07 1.0466938835e-06 8.4176759018e-07 9.1645088537e-07 9.5053485772e-07
          9.2982900706e-07 1.0410000184e-06 8.5901969162e-07 1.0455467281e-06 1.0088515732e-06 9.4219779212e-07
          1.024712212e-06 8.2377589442e-07 1.0416407231e-06 1.01204919e-06 8.6125705448e-07 7.9427993398e-07
          9.5048731956e-07 9.6970055813e-07 1.0450206209e-06 1.0015394394e-06 8.5933617812e-07 9.9649530468e-07
          1.0196514693e-06 9.35087101e-07 9.5073223122e-07 9.9015665453e-07 1.0189789416e-06 8.5829652386e-07
          1.967490251e-06 9.2409394199e-07 9.8719931108e-07 9.2719087141e-07 8.1133975474e-07 1.0331650153e-06
          9.0176797981e-07 8.9086574069e-07 9.3636304539e-07 9.2351015135e-07 8.931476885e-07 1.0156517881e-06
          8.8329952591e-07 9.5159201344e-07 1.0145399071e-06 9.4163400017e-07 9.8690406972e-07 8.5537247064e-07
          9.9259261782e-07 9.4780890654e-07 9.1494651865e-07 9.5056168193e-07 9.8076065483e-07 9.5808327649e-07
          9.4629020705e-07 9.7593304492e-07 9.218438149e-07 9.6685737357e-07 9.4587081199e-07 9.3376873622e-07
          9.2109056505e-07 8.9953852529e-07 1.6518972955e-06 9.1726712233e-07 9.2071035682e-07 8.8929392856e-07
          8.949465005e-07 9.5295847492e-07 9.4331252715e-07 9.2995411742e-07 9.1194577802e-07 9.3284956697e-07
          9.0332210465e-07 9.0458948912e-07 9.1055984419e-07 9.321882412e-07 1.025422979e-06 1.6307382486e-06
          8.7541734158e-07 8.5314726863e-07 8.5379279216e-07 9.3760315133e-07 8.4108543383e-07 9.3957870302e-07
          8.7189703938e-07 9.3433673384e-07 1.6002193987e-06 8.4157481102e-07 8.3954922045e-07 8.5667970361e-07
          9.4283625748e-07 9.2381338515e-07 8.4297673844e-07 9.0992374501e-07 8.4371431778e-07 8.9705669125e-07
          8.7308824715e-07 8.8254937191e-07 9.0886080207e-07 8.6962375009e-07 8.7759972753e-07 8.1879846453e-07
          8.8038376371e-07 8.8895941584e-07 8.614154088e-07 9.2295903358e-07 9.1971516288e-07 8.6919812785e-07
          8.9986641209e-07 8.5741174828e-07 9.2126821055e-07 8.4262416112e-07 8.6608749155e-07 8.987279002e-07
          8.5185038169e-07 8.3304929805e-07 8.0420742022e-07 8.8647458774e-07 8.7885116283e-07 8.7069112014e-07
          8.9648944662e-07 8.4480374641e-07 8.7267169333e-07 8.2540104964e-07 8.7969850759e-07 8.8747864857e-07
          9.0700213091e-07 8.8998616592e-07 8.1683334688e-07 8.1102901227e-07 8.5867851959e-07 8.1895224254e-07
          8.093395915e-07 8.7835964125e-07 7.8317808506e-07 7.89878579e-07 7.8863674695e-07 8.6503762232e-07
          7.8672129538e-07 8.3000419739e-07 1.5807642734e-06 8.3849597319e-07 8.3426101197e-07 8.8159203748e-07
          8.4576668109e-07 7.8357969144e-07 8.7816863259e-07 8.1336598441e-07 8.5678088148e-07 1.0248402463e-06
          9.9910566913e-07 8.0459277178e-07 8.3471446542e-07 9.315167283e-07 8.3912028608e-07 9.8859373858e-07
          1.0057631693e-06 8.2948994624e-07 8.6657954804e-07 9.9259834783e-07 9.0307237145e-07 7.9622987342e-07
          8.9964411639e-07 8.7353581956e-07 9.139148534e-07 9.5604943751e-07 9.6035372009e-07 8.4189826705e-07
          1.896377323e-06 1.0108313568e-06 1.0361144688e-06 8.5256387032e-07 8.2094010424e-07 8.4965604679e-07
          9.7055705343e-07 9.9624157564e-07 1.8198613041e-06 8.7011352492e-07 8.4391995884e-07 8.2703464014e-07
          1.02522514e-06 1.0271684474e-06 1.0267611851e-06 9.3030636954e-07 9.8392222167e-07 1.0009527286e-06
          8.5368267131e-07 8.055454287e-07 8.5392208908e-07 9.4472007958e-07 1.0329094324e-06 9.9400405522e-07
          1.0325978157e-06 1.02036798e-06 9.3375748362e-07 8.1314709302e-07 1.0069486329e-06 1.837465236e-06
          9.8984371229e-07 9.1985676228e-07 1.0325190021e-06 1.8552344539e-06 1.6245318953e-06 9.3647414923e-07
          9.6838080299e-07 8.2828580522e-07 1.0332386857e-06 8.9089366433e-07 1.9066898078e-06 1.0303726833e-06
          9.1237402987e-07 9.1122506496e-07 1.0080601166e-06 8.4028686344e-07 1.7914486114e-06 9.5835579728e-07
          9.7396045931e-07 9.3720123254e-07 9.9176163409e-07 8.4710647115e-07 8.6978382706e-07 9.117969227e-07
          1.0220730747e-06 9.3526930564e-07 9.2428690224e-07 9.9912511836e-07 9.8027688889e-07 9.2795866854e-07
          1.0245791587e-06 1.6862717351e-06 8.7989820891e-07 8.8319023426e-07 8.5477738879e-07 1.7176171204e-06
          1.9656089724e-06 1.5484178516e-06 1.0090515532e-06 9.2546413492e-07 8.8862752667e-07 9.7433411609e-07
          9.4583018181e-07 8.3209577096e-07 9.0096250421e-07 8.9685741495e-07 9.2528031196e-07 8.8874557366e-07
          9.1289574915e-07 1.5268402985e-06 1.8210263409e-06 9.4037778322e-07 1.0328702266e-06 9.7016672552e-07
          9.0869869527e-07 1.0482390149e-06 8.975877547e-07 8.7600879361e-07 8.2389515758e-07 1.5678514661e-06
          1.5718541115e-06 1.7279427613e-06 1.8215293837e-06 9.7475262033e-07 8.7585863082e-07 1.0398737179e-06
          8.3119588936e-07 9.3512569119e-07 9.612138444e-07 9.9165671514e-07 9.3109571823e-07 8.5717825318e-07
          8.9324762247e-07 8.4425346545e-07 1.9133923017e-06 1.9583898997e-06 1.8275688355e-06 1.7439614783e-06
          1.9268258968e-06 1.0073851723e-06 1.0335777426e-06 9.8820734985e-07 8.4168785202e-07 9.3677492292e-07
          8.5105853881e-07 9.4563490979e-07 9.8200638437e-07 1.8125999403e-06 1.5807297592e-06 9.9823571388e-07
          8.3271263754e-07 9.6610324757e-07 8.5966968247e-07 9.5149144523e-07 9.0472964672e-07 8.4456755575e-07
          8.1660835302e-07 9.1776118656e-07 1.5333811185e-06 1.5967780677e-06 1.900278133e-06 1.7585090086e-06
          8.8961640739e-07 1.0185504539e-06 8.882902236e-07 1.0288920979e-06 8.8533647609e-07 9.8654926348e-07
          8.4858784063e-07 8.7174585853e-07 8.6882876412e-07 1.0111319075e-06 1.773015486e-06 9.0592899812e-07
          8.6708109276e-07 9.7236434943e-07 1.0296672732e-06 1.000626354e-06 1.0224864834e-06 1.0021317204e-06
          1.7995425764e-06 9.2841445473e-07 8.6150359719e-07 1.607187574e-06 9.8447458922e-07 8.6988092645e-07
          9.837970161e-07 9.4746489582e-07 9.313842833e-07 9.9570863998e-07 9.517949575e-07 8.9159933113e-07
          9.6239078734e-07 9.9097763498e-07 8.9358582099e-07 8.7425033017e-07 1.6598542673e-06 9.8187487675e-07
          9.2313118236e-07 9.4337092555e-07 8.8053986747e-07 9.5643064217e-07 9.1135961244e-07 8.9777169688e-07
          8.8438065564e-07 8.9442044897e-07 9.5904327003e-07 9.5060250301e-07 8.8507863836e-07 9.1437661094e-07
          9.5347137985e-07 8.611065315e-07 9.221373611e-07 8.8411884174e-07 1.6138630663e-06 8.8682171873e-07
          8.9279774969e-07 8.386149067e-07 1.4993398592e-06 9.2477751859e-07 9.1290580164e-07 8.8332695022e-07
          8.3273206431e-07 8.3499102943e-07 8.3497828079e-07 8.5608496647e-07 8.3752028277e-07 8.9247278736e-07