<?xml version="1.0"?>
<VTKFile type="UnstructuredGrid" version="0.1" byte_order="LittleEndian" header_type="UInt32" compressor="vtkZLibDataCompressor">
  <UnstructuredGrid>
    <Piece NumberOfPoints="1429" NumberOfCells="1429">
      <PointData>
        <DataArray type="Int32" Name="id" format="ascii" RangeMin="1" RangeMax="1429">
          792 477 298 1166 133 1051
          791 624 668 19 991 887
          623 206 938 793 529 308
          1167 936 605 50 59 134
          625 385 1380 1114 531 244
          937 844 626 1047 190 766
          666 343 1168 1050 1113 989
          406 589 669 745 123 845
          241 484 174 990 794 318
          550 49 457 888 97 495
          846 42 324 15 44 22
          131 118 474 3 1048 264
          196 1295 1296 1297 1298 1299
          1300 1378 1379 1002 1179 203
          75 459 847 530 886 40
          276 460 992 1053 592 748
          1052 93 369 593 430 993
          386 994 842 1170 245 408
          1115 627 1226 1 939 594
          671 749 461 78 889 266
          795 407 1054 890 150 117
          628 1055 532 175 1057 672
          54 362 629 497 797 675
          892 711 24 475 256 798
          796 370 670 891 1056 595
          109 286 533 996 940 225
          7 1118 257 1234 389 673
          387 215 995 674 363 1172
          388 1058 561 207 1119 1109
          106 676 1059 1227 800 1116
          1171 124 119 799 634 677
          433 434 597 371 141 1173
          62 534 1229 1117 562 1122
          1120 895 633 176 432 1121
          501 998 893 941 999 246
          848 373 849 329 596 498
          894 535 1000 258 435 1174
          630 20 84 750 997 267
          1060 1175 713 499 805 804
          500 712 372 1228 802 310
          803 632 1062 1001 1177 898
          1176 801 154 1235 502 1125
          208 598 850 806 478 1061
          901 504 1123 631 1124 436
          751 198 678 220 309 896
          536 897 752 374 188 899
          277 161 1126 462 807 166
          1230 344 808 503 942 1233
          1231 61 390 900 1063 299
          1178 679 137 1232 311 680
          1301 1302 1303 1304 1305 1306
          1307 1308 1309 1310 1311 1312
          1313 1372 1381 1382 1383 1384
          1385 1386 1387 1388 1389 1390
          1391 1392 1393 1169 313 1245
          507 943 1180 851 809 209
          121 635 636 753 1003 1247
          177 391 268 1181 946 32
          505 599 312 945 944 1236
          682 51 754 537 479 506
          1005 411 563 1248 1065 1004
          811 1064 681 1066 77 1127
          947 810 1006 601 275 538
          813 1069 325 746 755 226
          1067 330 812 85 409 948
          1182 600 463 60 148 314
          1237 508 235 714 105 540
          1238 410 315 1068 1239 756
          186 300 852 539 81 167
          1110 1070 1007 221 950 853
          345 854 541 437 949 547
          151 92 1246 565 67 375
          903 907 227 904 18 1165
          1224 57 759 438 542 902
          1240 412 1071 602 509 1134
          569 192 160 216 129 145
          135 1072 637 1129 1128 856
          814 1074 364 82 683 228
          1241 905 716 718 1073 715
          855 14 26 283 883 1244
          717 346 951 464 113 857
          480 952 393 89 1243 288
          269 1008 764 906 1190 458
          348 543 12 690 1314 1315
          1316 1317 1318 1319 1320 1321
          1322 1323 1324 1373 1394 1395
          1396 1397 1398 1399 1242 1401
          1404 859 908 544 1009 909
          566 511 111 37 761 1130
          317 229 719 316 210 953
          510 860 911 858 1077 546
          247 34 910 816 638 366
          1076 1075 413 222 1010 545
          90 270 861 640 481 242
          365 862 567 513 1184 954
          912 955 1250 956 367 350
          512 1260 168 439 1185 641
          351 603 762 79 818 1013
          392 1186 187 1249 199 101
          957 817 1079 236 1011 643
          604 331 1251 1012 1080 1261
          514 157 515 2 126 259
          1082 217 142 69 1187 1078
          1014 349 649 278 332 568
          1112 564 230 863 1083 35
          46 560 642 289 864 394
          684 644 1131 271 958 1252
          959 1081 115 1111 622 155
          757 237 149 758 517 686
          822 496 934 86 440 819
          685 1188 1253 960 1259 483
          820 414 287 1085 72 1133
          416 821 482 720 415 1132
          200 721 1254 1084 1256 182
          763 1191 1015 914 765 691
          913 352 1262 961 39 1255
          441 865 1016 645 1189 136
          333 13 384 442 301 353
          1257 687 647 516 590 48
          120 1263 688 23 158 1405
          1258 181 465 204 646 189
          1086 1135 866 211 549 689
          1017 96 341 30 571 648
          1137 99 1136 95 548 823
          962 570 710 347 824 354
          304 1325 1326 1327 1328 1329
          1330 1331 1332 1333 1334 1335
          760 1374 1400 1403 1402 279
          1018 1265 1264 1192 127 867
          789 43 723 418 466 572
          692 1138 56 417 110 218
          355 1139 395 405 73 476
          38 573 485 915 722 1193
          1140 868 767 6 1019 1020
          650 280 33 825 869 574
          223 575 1267 965 248 179
          47 368 1266 963 964 41
          146 747 305 159 377 87
          91 17 173 88 265 935
          169 116 306 58 197 243
          102 884 1294 1336 1337 1338
          1375 1406 1407 1408 1409 518
          107 1194 606 724 396 238
          916 11 1141 870 357 1087
          693 486 1021 1142 918 607
          290 917 1143 1195 1088 871
          576 1196 966 334 1144 419
          1145 66 843 1022 1089 162
          1023 769 919 1090 420 487
          694 768 191 249 651 608
          872 103 726 138 826 827
          1268 212 1091 770 489 272
          551 771 467 772 319 45
          284 130 1049 10 36 152
          1339 1340 1341 1342 1410 185
          920 742 1281 285 1024 398
          1093 695 725 519 1279 250
          443 652 1197 224 356 790
          696 1025 577 397 1094 609
          1269 25 1026 444 828 967
          1198 55 612 873 335 921
          968 610 163 1270 488 80
          147 874 468 1271 260 611
          922 74 697 988 193 727
          923 1096 1146 378 1027 1028
          1147 1148 5 552 422 1280
          1272 578 1095 423 1029 730
          445 1199 291 969 183 1149
          326 320 4 379 1097 164
          108 654 1151 1203 261 1200
          424 1273 273 653 490 446
          184 1201 591 302 970 520
          613 579 773 132 829 971
          700 831 728 140 614 972
          1030 1274 777 1150 830 231
          1275 832 775 774 1152 342
          9 293 924 336 1153 448
          213 729 76 778 52 447
          698 1276 731 491 1204 1277
          294 779 470 292 1278 699
          521 925 776 973 833 139
          1202 195 492 1205 469 780
          1343 1344 1345 1346 1347 1348
          1349 1350 1376 1411 1412 1413
          1414 1415 1416 1092 1206 449
          781 743 1209 701 1098 450
          21 1371 376 104 1183 1099
          251 734 125 784 709 875
          1154 471 64 1207 429 1031
          65 1283 1282 783 782 1208
          733 29 639 122 656 974
          581 68 281 1284 527 1210
          321 580 667 399 876 702
          262 736 170 239 421 327
          156 975 1211 1212 553 554
          1155 1100 380 1287 657 400
          735 282 451 1285 381 1286
          926 737 877 358 328 658
          1032 1288 703 834 232 452
          927 472 1289 295 878 1213
          1225 28 219 523 582 1033
          979 976 980 738 522 977
          8 929 615 785 1216 978
          338 661 555 583 1214 178
          94 205 705 659 401 1215
          1217 1101 337 382 63 1037
          83 53 255 1038 556 836
          253 618 1036 1290 704 1039
          835 144 114 928 1034 402
          786 454 404 1157 1158 383
          1102 453 1035 359 1103 983
          665 981 660 425 201 584
          234 837 263 617 1291 1156
          194 274 930 1292 663 839
          664 153 31 431 879 252
          585 982 70 1219 787 403
          455 233 1161 1040 931 473
          1041 1218 426 165 172 706
          662 741 1293 708 1222 27
          360 1104 619 1159 171 707
          1162 427 616 296 558 739
          984 1044 240 214 1106 71
          428 361 528 557 100 1105
          586 740 303 1220 788 1160
          838 744 840 881 1223 112
          1221 525 588 98 985 180
          880 885 128 1042 16 493
          621 339 143 932 323 1043
          1107 732 933 1045 1046 254
          559 322 620 882 841 524
          340 987 1163 526 307 587
          986 1108 297 494 202 456
          1164 815 655 1351 1352 1353
          1354 1355 1356 1357 1358 1359
          1360 1361 1362 1363 1364 1365
          1366 1367 1368 1369 1370 1377
          1417 1418 1419 1420 1421 1422
          1423 1424 1425 1426 1427 1428
          1429
        </DataArray>
        <DataArray type="Int32" Name="type" format="ascii" RangeMin="1" RangeMax="2">
          2 2 2 2 2 2
          2 2 2 1 2 2
          2 2 2 2 2 2
          2 2 2 1 1 1
          2 2 2 2 2 2
          2 2 2 1 2 2
          1 2 2 2 2 2
          2 1 2 1 1 2
          1 2 2 2 2 2
          2 1 1 2 1 1
          2 1 1 1 1 1
          1 1 1 1 1 1
          1 2 2 2 2 2
          2 2 2 2 2 1
          2 2 2 2 2 1
          2 2 2 2 2 2
          2 1 2 2 1 2
          2 2 1 2 2 2
          2 2 2 1 2 2
          2 2 2 2 2 2
          2 2 2 2 1 1
          2 2 2 2 2 2
          1 1 2 2 2 2
          2 2 1 1 2 2
          2 2 2 2 2 2
          2 2 2 2 2 2
          1 2 2 2 2 2
          2 1 2 2 1 2
          2 2 2 2 2 1
          2 2 2 2 2 2
          2 2 1 2 2 2
          2 2 2 2 2 2
          2 2 2 2 2 2
          2 2 2 2 2 2
          2 2 2 2 2 2
          2 2 2 2 2 2
          2 2 2 2 2 2
          2 1 1 2 2 2
          2 2 2 2 2 2
          2 2 2 2 2 2
          2 2 2 2 2 2
          2 2 2 2 2 2
          2 2 2 2 2 2
          2 2 2 2 2 2
          2 2 2 2 2 2
          2 2 2 2 2 2
          2 2 2 2 2 1
          2 2 2 2 2 2
          2 2 2 2 2 2
          2 2 2 2 2 2
          2 2 2 2 2 2
          2 2 2 2 2 2
          2 1 2 2 2 2
          2 2 2 2 2 2
          2 2 2 2 2 2
          2 2 2 2 2 2
          2 2 2 2 2 2
          2 2 2 2 2 1
          2 2 2 2 2 2
          2 1 2 2 2 2
          2 2 2 2 2 2
          2 2 2 2 2 2
          2 2 2 2 1 2
          2 2 1 1 2 2
          2 2 2 1 2 2
          2 2 2 1 2 2
          2 2 2 2 2 2
          2 2 2 2 2 2
          1 2 2 2 1 1
          1 2 2 2 2 2
          2 2 2 2 2 2
          1 1 2 2 2 2
          2 2 2 2 1 1
          1 1 2 2 2 2
          2 2 2 2 2 2
          2 1 1 1 1 1
          2 2 2 2 2 2
          2 2 1 1 2 2
          2 2 2 2 2 2
          2 1 1 1 1 2
          2 2 2 2 2 2
          2 2 2 1 2 2
          2 2 2 2 2 1
          2 2 1 2 2 2
          2 2 2 2 2 2
          2 2 2 1 2 2
          2 2 2 2 2 2
          2 2 2 2 2 2
          2 2 2 1 2 2
          2 2 2 2 2 2
          2 2 2 2 2 2
          2 1 2 2 2 1
          2 2 2 2 2 2
          1 2 2 2 2 1
          1 2 2 2 2 2
          2 2 2 2 1 2
          2 2 1 2 2 2
          2 2 2 2 2 2
          2 2 1 2 2 1
          2 2 2 2 2 2
          2 2 2 2 2 2
          2 2 2 1 1 2
          2 1 2 2 2 2
          2 2 2 2 2 2
          1 2 2 2 2 1
          1 1 2 2 2 2
          2 2 2 2 2 2
          2 2 1 1 1 2
          2 2 2 2 2 2
          2 1 1 1 2 2
          2 2 2 2 2 2
          2 2 2 2 2 2
          2 2 2 2 2 2
          2 2 2 2 2 2
          2 2 2 2 2 2
          2 2 2 2 1 2
          2 2 2 2 2 2
          2 1 1 2 2 2
          2 2 2 2 1 1
          1 2 2 1 2 2
          2 2 2 1 2 2
          2 2 2 2 2 2
          2 1 1 1 2 2
          2 1 2 1 2 2
          2 2 1 2 2 2
          1 2 2 2 2 2
          2 2 2 2 2 2
          2 1 2 2 2 2
          2 2 2 2 2 2
          1 1 2 2 2 2
          2 2 1 2 1 1
          2 2 2 1 2 1
          1 2 2 2 2 2
          2 2 2 1 2 2
          2 2 1 2 2 2
          2 2 2 2 2 1
          1 1 2 2 2 1
          1 1 1 2 2 1
          1 1 1 1 1 1
          1 1 1 1 1 1
          1 1 1 2 2 2
          1 2 2 2 2 2
          2 2 2 2 2 2
          2 1 2 2 2 2
          2 2 2 2 2 2
          2 2 2 2 2 2
          2 2 2 2 2 2
          2 2 1 2 2 2
          2 2 2 2 2 2
          2 2 2 2 2 2
          2 1 2 2 2 2
          2 2 2 2 2 2
          2 2 2 2 2 1
          1 1 1 1 1 1
          2 2 2 2 2 2
          2 2 2 1 2 2
          2 2 2 2 2 2
          2 2 2 1 2 1
          2 2 2 2 2 2
          2 1 2 2 2 2
          2 1 2 2 2 2
          2 2 2 2 2 1
          1 2 2 2 2 2
          2 2 2 1 1 2
          2 2 2 2 2 2
          2 2 1 2 2 2
          2 2 2 2 2 2
          2 2 2 2 2 2
          1 2 1 2 2 2
          2 2 2 2 2 2
          2 2 2 2 2 2
          2 2 1 2 2 2
          2 2 2 2 2 2
          2 2 2 1 2 2
          2 2 2 2 2 2
          2 2 2 2 2 1
          1 2 2 2 2 2
          2 2 2 2 1 2
          2 2 2 2 2 2
          2 2 2 2 2 2
          2 2 2 2 2 2
          2 2 2 2 2 2
          2 2 2 2 2 2
          2 2 1 2 2 2
          2 2 2 2 2 2
          2 2 2 2 2 2
          1 2 2 1 2 2
          2 2 2 2 2 2
          2 2 2 2 2 2
          2 2 2 2 2 2
          2 1 2 2 2 2
          2 2 2 2 1 2
          2 2 1 2 2 2
          2 2 2 2 2 1
          2 2 2 2 2 2
          2 2 2 2 2 2
          2 2 2 2 2 2
          2 2 2 2 1 2
          2 2 2 2 2 2
          2 2 2 2 2 2
          1 1 1 2 2 2
          2 2 2 2 2 2
          1 2 2 2 2 2
          2 2 2 2 2 2
          1 1 2 2 2 2
          2 2 2 2 2 2
          1 1 1 2 2 2
          2 2 2 2 2 2
          2 2 2 2 2 2
          2 2 2 2 2 2
          2 2 2 2 2 2
          2 2 2 2 2 2
          2 2 2 2 2 2
          1 2 2 2 2 2
          2 1 1 1 2 2
          2 2 2 2 2 2
          2 2 2 2 2 2
          2 2 2 2 2 2
          2 2 2 2 2 1
          2 2 2 2 2 2
          2 2 2 2 2 2
          2 2 2 2 2 2
          2 2 1 2 1 2
          2 2 2 2 2 2
          2 2 2 2 2 2
          2 2 2 1 2 2
          2 1 2 2 1 2
          2 2 2 2 2 2
          2 2 2 2 2 2
          2 2 2 2 2 2
          2 2 2 2 1 2
          2 2 2 2 2 2
          2 2 2 2 2 2
          2 2 2 2 2 2
          2 2 2 2 2 2
          2 2 2 2 2 1
          2 2 2 2 2 2
          2 2 2 2 2 2
          2
        </DataArray>
        <DataArray type="Float64" Name="diameter" format="ascii" RangeMin="7.7952519942e-07" RangeMax="1.9679012752e-06">
          1.002359499e-06 1.0215343633e-06 9.0584955302e-07 8.4757090489e-07 9.2317386011e-07 8.7316093997e-07
          9.0852326392e-07 8.4760021371e-07 9.4148717381e-07 1.5894123499e-06 9.4151829039e-07 1.0532849779e-06
          8.8198542989e-07 8.3966898645e-07 9.8530135348e-07 1.0566502601e-06 8.7632241708e-07 1.0245755258e-06
          9.3560438905e-07 1.0307312254e-06 9.8965615171e-07 1.6186384706e-06 1.6911606817e-06 1.9621114543e-06
          9.4152661463e-07 9.646094096e-07 8.1732565709e-07 9.0806609303e-07 9.4197737886e-07 1.025257023e-06
          9.2735586469e-07 1.047023493e-06 9.1903018155e-07 1.6203062029e-06 8.5294140667e-07 9.1741864155e-07
          1.6386237571e-06 9.7782913905e-07 8.4494246183e-07 9.094041235e-07 9.0081016682e-07 9.7590039929e-07
          1.0392405632e-06 1.5965212536e-06 9.1539963015e-07 1.688615789e-06 1.7669260247e-06 8.8033444061e-07
          1.7414288219e-06 9.9050778198e-07 9.3156449361e-07 9.2616961984e-07 8.3445854161e-07 8.7307775516e-07
          8.7215928372e-07 1.740919387e-06 1.6916414656e-06 9.5342528743e-07 1.9201129914e-06 1.6716016749e-06
          9.5839064544e-07 1.8226547492e-06 1.7312462062e-06 1.6059537669e-06 1.9098230052e-06 1.6682944001e-06
          1.9100218628e-06 1.7579499357e-06 1.7619215302e-06 1.8610481363e-06 1.5985225677e-06 1.7668465899e-06
          1.8428003628e-06 8.2452610907e-07 8.5502955104e-07 8.5105540642e-07 8.2096790918e-07 8.9822064685e-07
          8.4276341371e-07 8.6189229582e-07 8.0011548302e-07 9.8156651002e-07 8.88651843e-07 1.7721810408e-06
          9.956438895e-07 1.0121176671e-06 8.5963331913e-07 9.3174560396e-07 9.7602046518e-07 1.6856070173e-06
          8.7312266732e-07 9.6320372228e-07 9.3245702945e-07 9.5106802434e-07 9.8044120197e-07 8.7705804058e-07
          9.8332462974e-07 1.9540205633e-06 9.0778287e-07 9.8261034019e-07 1.7802057697e-06 9.1253555133e-07
          9.8178870486e-07 9.176861199e-07 1.5469405437e-06 8.8921829548e-07 9.1739039396e-07 1.0060503361e-06
          9.4367551367e-07 9.6925533142e-07 8.2846207393e-07 1.7120533307e-06 9.4341527214e-07 8.9722004e-07
          8.3556150599e-07 8.7539594836e-07 9.7853169255e-07 1.037748779e-06 9.9472934335e-07 9.7865002988e-07
          8.4765729739e-07 8.8347816536e-07 9.2786008698e-07 1.0528116571e-06 1.8903269607e-06 1.7502745997e-06
          8.5487799553e-07 9.9568097125e-07 1.0101186128e-06 9.1594286101e-07 9.740747172e-07 8.5668246565e-07
          1.8027331924e-06 1.7123237428e-06 9.3293069374e-07 9.5962568304e-07 1.036066173e-06 8.9759887047e-07
          1.0318572348e-06 8.6433393039e-07 1.6185861279e-06 1.6805843987e-06 1.0465854792e-06 8.2650953485e-07
          8.0671831871e-07 9.7090211113e-07 8.7205865099e-07 9.6099768625e-07 9.428032484e-07 8.6079531181e-07
          1.0502792029e-06 8.501910473e-07 9.8818486106e-07 8.8997912873e-07 9.0766468095e-07 8.6146000802e-07
          1.9116888181e-06 9.0875789125e-07 9.630816007e-07 9.1378834704e-07 8.049238803e-07 9.3321342311e-07
          8.9577752167e-07 1.8149239505e-06 9.5618777264e-07 8.8704106445e-07 1.7239047439e-06 9.4785443906e-07
          8.5367471814e-07 9.5515388427e-07 1.0019397562e-06 9.7679009129e-07 9.6842832903e-07 1.5683037864e-06
          9.2575609042e-07 8.6011059157e-07 9.8002966507e-07 8.6993801334e-07 8.6064617368e-07 8.7075558255e-07
          8.812821999e-07 9.4147129202e-07 1.9679012752e-06 9.8830118275e-07 9.9919414296e-07 9.3746615025e-07
          8.1451306848e-07 8.632769713e-07 1.0156911152e-06 8.4205809843e-07 9.5049182162e-07 9.2807877966e-07
          8.4762113237e-07 1.0204484492e-06 9.0237967571e-07 9.4177821414e-07 9.7608650332e-07 9.2096580804e-07
          9.7209539317e-07 1.0051231808e-06 8.5791423486e-07 8.4148239413e-07 8.8255372724e-07 8.9769032427e-07
          1.0093789342e-06 8.8886340939e-07 9.9058680262e-07 9.9192643993e-07 1.0036086432e-06 1.0180659678e-06
          1.0146935591e-06 8.6403462288e-07 8.2094027741e-07 9.4726604778e-07 1.0125538835e-06 8.439802079e-07
          9.6622455622e-07 9.1524697607e-07 9.2993888687e-07 8.4397282729e-07 9.8135110821e-07 8.9554727441e-07
          1.0025887747e-06 1.7914778508e-06 1.531079293e-06 8.6698317189e-07 9.067988014e-07 8.4381371413e-07
          8.9179832321e-07 8.5079798312e-07 8.7042531381e-07 9.07141767e-07 8.4089603039e-07 8.4921612686e-07
          9.3239392978e-07 8.7974590353e-07 1.047608201e-06 8.6623813359e-07 9.6245645395e-07 8.7152652238e-07
          1.0133076561e-06 9.5215004552e-07 9.9222879183e-07 9.1241184916e-07 8.5103111694e-07 1.0183604687e-06
          8.6010795797e-07 8.9592528529e-07 9.704144682e-07 9.149565458e-07 1.035903771e-06 9.3004583764e-07
          1.0157285943e-06 9.6382192205e-07 1.0041112156e-06 8.4456063965e-07 1.0423348471e-06 8.5645198148e-07
          9.5971052146e-07 1.036775636e-06 9.6304191119e-07 9.2931222317e-07 8.6690823933e-07 9.3981867599e-07
          1.0101944219e-06 9.5513401206e-07 9.2799193044e-07 1.0419674761e-06 9.8724725232e-07 1.0392401895e-06
          8.929293392e-07 9.6228631058e-07 9.2136563656e-07 9.8041962079e-07 9.178611696e-07 9.3818717647e-07
          8.603790152e-07 8.7570929198e-07 9.1104882786e-07 9.3857060715e-07 1.0278596169e-06 1.9024279446e-06
          8.4734193714e-07 9.0520599538e-07 8.529687138e-07 9.8980028874e-07 9.5211922442e-07 8.2958093915e-07
          8.2013011012e-07 1.0363501117e-06 8.497269973e-07 8.2266878543e-07 9.3129530933e-07 1.0166661049e-06
          8.7625444847e-07 9.3448185995e-07 1.052729608e-06 9.0805610588e-07 1.0414257297e-06 9.1329017168e-07
          8.659213684e-07 8.4396077665e-07 8.7739431292e-07 9.0526878711e-07 8.7850027978e-07 8.7161345817e-07
          8.9507208282e-07 8.4546888389e-07 8.8655048149e-07 8.7306329679e-07 8.5621809541e-07 8.4458505077e-07
          8.2474384495e-07 1.5972712278e-06 8.4693204599e-07 8.5018088109e-07 8.2110380724e-07 8.2025920888e-07
          8.7774816881e-07 8.6819786869e-07 8.565665355e-07 8.3620132721e-07 8.550961268e-07 8.3245531914e-07
          8.3395200282e-07 8.3779508571e-07 8.5862862107e-07 9.3682984308e-07 9.4196232155e-07 9.185711886e-07
          9.8014157624e-07 1.0013737913e-06 8.5643036042e-07 1.0457762469e-06 9.0864703686e-07 9.2442799088e-07
          1.0190283026e-06 7.9675541161e-07 9.1262236918e-07 8.302788056e-07 9.6594256635e-07 8.2697835697e-07
          8.0322689618e-07 8.4009642269e-07 8.7901829035e-07 8.8305702016e-07 1.0420036679e-06 1.8336666472e-06
          9.293517088e-07 9.5273552012e-07 9.7721944501e-07 9.7643694717e-07 1.0221613437e-06 8.923569936e-07
          9.1597111328e-07 1.7596809139e-06 1.0154397211e-06 9.9032033811e-07 9.7617743213e-07 9.4258260868e-07
          9.4450730812e-07 9.4399483456e-07 1.0240500333e-06 9.0444454702e-07 9.2030137356e-07 9.8283375086e-07
          9.9350719053e-07 9.7446639987e-07 8.6859964717e-07 9.4968317912e-07 9.1386733108e-07 9.4936097929e-07
          9.3784819064e-07 8.5839479138e-07 9.6982214342e-07 9.2590044452e-07 1.7767027042e-06 9.105979986e-07
          8.4592571898e-07 9.4985675533e-07 1.7938843218e-06 1.570810779e-06 8.6098576024e-07 8.9045058561e-07
          9.6638753554e-07 9.4995018932e-07 9.9989788958e-07 1.8436381036e-06 9.4743911889e-07 1.0138352924e-06
          8.378034796e-07 9.2683608671e-07 9.6956358754e-07 1.7322077797e-06 8.8085109302e-07 8.9545033058e-07
          8.6140620932e-07 9.1165092121e-07 9.9576263458e-07 7.9987726289e-07 1.0139127877e-06 9.4024711647e-07
          8.6009952012e-07 1.048436407e-06 9.1719403673e-07 9.0137247446e-07 8.5186236264e-07 9.4201970683e-07
          1.9471057822e-06 9.8101063456e-07 8.1248515193e-07 9.9644348797e-07 1.6608178074e-06 1.9006089022e-06
          1.4972137259e-06 9.2630647584e-07 1.008777058e-06 1.0272086015e-06 8.9602722004e-07 8.6770891921e-07
          9.9864497874e-07 1.0396304844e-06 1.0160826471e-06 8.5052309291e-07 1.011456497e-06 1.0063830467e-06
          1.9060160373e-06 1.7608074113e-06 8.6326414899e-07 9.5018229416e-07 8.9219476121e-07 1.0556864462e-06
          9.6399240766e-07 1.0350787049e-06 8.0587863199e-07 1.0070754992e-06 1.9268393653e-06 1.5198749837e-06
          1.6708019881e-06 1.7612938305e-06 8.9465315134e-07 8.0454379031e-07 9.5494865083e-07 9.7160529459e-07
          8.6015859176e-07 8.8396183323e-07 9.1066946487e-07 8.5505440191e-07 9.7142786467e-07 9.7123949382e-07
          9.7112301435e-07 1.8501189483e-06 1.8936285448e-06 1.7671335493e-06 1.6862909794e-06 1.8631083259e-06
          9.2451143168e-07 9.505099011e-07 9.0829923383e-07 9.6534477947e-07 8.6148704892e-07 1.0468751936e-06
          1.0493441856e-06 9.0210744802e-07 1.7526596569e-06 1.5284571289e-06 9.1611340057e-07 1.0019185179e-06
          8.8845827886e-07 9.9989321095e-07 8.7502081574e-07 8.3116258311e-07 9.8527175918e-07 9.6684777895e-07
          1.0173129974e-06 1.4826742396e-06 1.9557485997e-06 1.8374384598e-06 1.7003574534e-06 8.183968183e-07
          9.3502516756e-07 1.0092546002e-06 9.4486641402e-07 1.0479158933e-06 9.0598155701e-07 9.8370594276e-07
          9.7477817756e-07 1.0204074036e-06 9.2891286491e-07 1.714384211e-06 8.3140052355e-07 7.9766627391e-07
          8.9421618082e-07 9.4557828376e-07 9.2020698953e-07 9.3893312697e-07 9.2029154603e-07 1.7400340775e-06
          8.5292196804e-07 9.7652373329e-07 1.5540399995e-06 9.0535270685e-07 7.9979257847e-07 9.0462819512e-07
          8.7093657209e-07 8.563061841e-07 9.1380356705e-07 8.7529952584e-07 9.1193108254e-07 8.8413507357e-07
          9.1133377143e-07 8.2176902161e-07 8.0398750919e-07 1.6049650948e-06 9.0276291333e-07 8.4893696624e-07
          8.6784576805e-07 8.0939741377e-07 8.7956305325e-07 8.3725391206e-07 8.2477041106e-07 8.1246529443e-07
          8.21046355e-07 1.0550871434e-06 1.0173381187e-06 1.0233597454e-06 9.5409894867e-07 9.8834158831e-07
          9.3965067526e-07 9.7529027363e-07 9.7495723624e-07 1.7624084974e-06 8.5083935091e-07 9.486952579e-07
          1.0489713773e-06 8.6998872746e-07 1.0483507527e-06 1.0069110256e-06 1.0126427992e-06 9.1238922788e-07
          1.0463876763e-06 8.7956493164e-07 1.0039501132e-06 1.0145590998e-06 9.3982950492e-07 9.4366147222e-07
          8.3406595798e-07 1.742040005e-06 9.6568844328e-07 8.5272592889e-07 8.8817748902e-07 1.7681035832e-06
          9.4232659066e-07 9.7979513685e-07 9.4062379045e-07 9.4496625572e-07 8.989497899e-07 9.1907385218e-07
          1.8447977079e-06 1.0237936829e-06 9.9968648677e-07 9.2064409707e-07 9.6442005055e-07 1.8071408519e-06
          1.7542533222e-06 8.5116055708e-07 9.4228485034e-07 1.0124806286e-06 8.5638880684e-07 1.0376806383e-06
          1.0505596872e-06 9.3379417454e-07 8.4084961399e-07 9.6043967707e-07 1.672367372e-06 1.0324011486e-06
          1.0500665562e-06 9.1121760192e-07 1.8996938471e-06 9.7607279843e-07 9.1527303191e-07 9.0896540871e-07
          9.1035083377e-07 1.0019531432e-06 9.8675162803e-07 9.1866189704e-07 9.148419184e-07 9.9794208875e-07
          9.9558585077e-07 8.9583325285e-07 1.9483304401e-06 8.2405982874e-07 8.5015716415e-07 1.7651597272e-06
          9.1253693916e-07 9.9204356572e-07 9.360048725e-07 8.0783155138e-07 9.0930267732e-07 9.1405038021e-07
          9.9955081415e-07 1.0133027177e-06 8.3704118744e-07 8.7515262949e-07 9.7088583592e-07 8.2370710143e-07
          9.6933245636e-07 9.0741525627e-07 8.9726780213e-07 1.6357641331e-06 1.5796752793e-06 8.9786793988e-07
          9.9431986154e-07 1.7655757976e-06 8.7874609024e-07 1.0097312178e-06 8.8496255218e-07 9.9113796853e-07
          9.3735410083e-07 8.6810668373e-07 8.504241617e-07 9.4866945102e-07 9.868777124e-07 9.0202063356e-07
          1.6364298594e-06 8.7004596103e-07 1.0031815192e-06 1.0007017985e-06 8.891559493e-07 1.9540246205e-06
          1.8441990735e-06 1.615362086e-06 1.0260610006e-06 8.6201465641e-07 1.0312070628e-06 8.9345847685e-07
          8.5797859547e-07 9.0246707896e-07 8.8426862476e-07 9.0970019435e-07 9.8404259489e-07 8.5630726658e-07
          9.4701625084e-07 9.6610813232e-07 1.5611050794e-06 1.607214349e-06 1.7176434468e-06 1.0102605667e-06
          1.0314994796e-06 9.755745297e-07 8.8259252934e-07 8.4945052703e-07 1.0341850389e-06 9.6754394025e-07
          8.3403987185e-07 1.6011432764e-06 1.5213759961e-06 1.6271864428e-06 9.7132395605e-07 8.1963279081e-07
          8.9614893538e-07 8.9644610207e-07 8.6307876529e-07 9.5365952005e-07 8.0796145092e-07 9.8449535992e-07
          9.6832282465e-07 1.0311644157e-06 1.0328006603e-06 9.8061286673e-07 8.7799612831e-07 9.0365887046e-07
          8.4195223325e-07 1.0089381908e-06 1.0063987019e-06 8.4206875495e-07 8.8972137241e-07 9.4253399205e-07
          8.854857952e-07 1.0508128702e-06 8.3021186515e-07 8.5733324017e-07 8.7188858088e-07 1.0041096435e-06
          9.2089656867e-07 8.9335758979e-07 9.1601874701e-07 1.0257823279e-06 8.8029166701e-07 9.2056979864e-07
          9.6068972175e-07 9.8497642474e-07 9.2221040138e-07 9.4012101788e-07 1.9097356789e-06 8.6383622881e-07
          9.6997266297e-07 8.4372227097e-07 9.8212504444e-07 9.8052540668e-07 9.3475801572e-07 8.3844145071e-07
          8.4088455937e-07 1.7466526725e-06 1.8232382511e-06 8.4481912527e-07 1.0364267563e-06 8.6325690116e-07
          8.967177559e-07 8.6537317364e-07 1.0119173807e-06 9.6212725966e-07 1.774752221e-06 1.8033453855e-06
          1.7110552521e-06 9.1028505305e-07 9.2035735776e-07 1.7469451987e-06 8.4971178953e-07 8.1660510038e-07
          8.4186369528e-07 8.3868477164e-07 1.052311431e-06 1.8336962862e-06 9.3213974667e-07 1.0232665599e-06
          9.2363355982e-07 9.6596167056e-07 1.0009871426e-06 8.9935365035e-07 8.5545564766e-07 9.4323966212e-07
          8.824996424e-07 1.6540937037e-06 1.7806028999e-06 1.6663467676e-06 8.5660264033e-07 8.5653254217e-07
          9.2056618934e-07 1.5749199691e-06 9.0337322128e-07 1.8650806586e-06 9.1460109118e-07 8.6048342525e-07
          9.498072655e-07 1.0070441597e-06 1.6717919781e-06 1.014880113e-06 1.0565832259e-06 1.0313547975e-06
          1.8224695226e-06 8.5707742102e-07 8.4798006316e-07 8.7254914129e-07 9.0654914543e-07 8.7489226744e-07
          8.603456968e-07 9.0045434696e-07 8.5988440713e-07 8.8662125476e-07 8.7255157079e-07 8.5238572367e-07
          8.004099478e-07 1.5015569802e-06 8.2593496814e-07 8.4627698148e-07 8.5340969991e-07 9.1815614135e-07
          9.746147555e-07 9.1267301943e-07 8.2396642483e-07 8.4840475005e-07 9.3053250862e-07 9.7621507306e-07
          1.5398094078e-06 1.9016519154e-06 8.5474720324e-07 8.8179340899e-07 9.4243355483e-07 9.3887518736e-07
          9.6254081982e-07 8.9507625146e-07 1.7321018879e-06 1.0568389029e-06 1.7342658976e-06 1.8259343782e-06
          8.6229230481e-07 9.2026174018e-07 9.0337032863e-07 1.758016775e-06 8.3305202189e-07 1.627587105e-06
          1.747943934e-06 9.9317550626e-07 1.0514813318e-06 9.5558244244e-07 8.819429277e-07 9.4160137257e-07
          9.1235449694e-07 1.0255081639e-06 8.9050389255e-07 1.7624085601e-06 9.3741725713e-07 9.3617799521e-07
          1.0211196683e-06 9.1976682729e-07 1.7948177263e-06 8.278717619e-07 8.8189958851e-07 9.8439878485e-07
          1.0126247639e-06 9.1613156131e-07 8.6349500003e-07 1.004600514e-06 9.835032757e-07 1.8807072632e-06
          1.8490293897e-06 1.7542534093e-06 8.3999496552e-07 1.0424348565e-06 9.234625464e-07 1.764012566e-06
          1.8631084115e-06 1.7260135434e-06 1.8235114019e-06 9.634686126e-07 9.2573277019e-07 1.5373617613e-06
          1.824128715e-06 1.558811733e-06 1.8755166745e-06 1.9544266803e-06 1.7915882072e-06 1.7074644894e-06
          1.8860577971e-06 1.5774883484e-06 1.7983002263e-06 1.6994009219e-06 1.9265014963e-06 1.7421907984e-06
          1.5152086491e-06 1.5551838076e-06 1.6143154523e-06 8.5633683014e-07 8.084329315e-07 8.9119824801e-07