<?xml version="1.0"?>
<VTKFile type="UnstructuredGrid" version="0.1" byte_order="LittleEndian" header_type="UInt32" compressor="vtkZLibDataCompressor">
  <UnstructuredGrid>
    <Piece NumberOfPoints="165" NumberOfCells="165">
      <PointData>
        <DataArray type="Int32" Name="id" format="ascii" RangeMin="1" RangeMax="165">
          133 75 134 19 59 50
          123 97 49 42 118 131
          15 22 44 3 93 40
          1 78 117 54 24 124
          7 119 20 109 62 106
          84 61 137 141 150 154
          161 121 77 32 51 60
          85 81 105 129 67 18
          92 82 135 14 26 57
          12 89 145 148 151 155
          160 111 64 34 37 90
          46 101 86 79 35 2
          126 136 69 115 48 120
          72 39 13 99 30 113
          23 96 95 142 149 156
          157 158 110 43 127 56
          73 33 6 38 116 88
          47 87 91 17 41 58
          102 10 146 159 107 11
          66 103 45 130 36 138
          152 162 125 55 25 80
          74 5 4 132 108 9
          76 52 139 140 147 163
          164 68 104 21 29 65
          122 28 8 94 83 114
          63 53 27 31 128 70
          16 112 100 71 98 143
          144 153 165
        </DataArray>
        <DataArray type="Int32" Name="type" format="ascii" RangeMin="1" RangeMax="2">
          2 2 1 1 1 1
          1 1 1 1 1 1
          1 1 1 1 1 1
          1 2 1 1 1 2
          1 1 1 2 2 2
          1 2 2 2 1 2
          2 2 2 1 1 1
          1 1 2 1 2 1
          1 1 2 1 1 1
          1 1 1 2 1 2
          1 2 2 1 1 1
          1 1 1 2 1 1
          1 2 2 1 1 1
          2 1 1 1 1 2
          1 1 1 2 2 2
          2 2 1 1 2 1
          2 1 1 1 1 1
          1 1 1 1 1 1
          1 1 1 2 2 1
          2 1 1 1 1 2
          1 2 2 1 1 1
          2 1 1 2 2 1
          2 1 2 1 1 2
          2 2 1 1 1 2
          2 1 1 1 1 2
          2 1 1 1 2 2
          1 2 1 2 1 2
          2 1 2
        </DataArray>
        <DataArray type="Float64" Name="diameter" format="ascii" RangeMin="8.1598053398e-07" RangeMax="1.9676170398e-06">
          9.2141767485e-07 1.0270824511e-06 1.5806598937e-06 1.6290532748e-06 1.6902552535e-06 1.679151873e-06
          1.711288406e-06 1.8626131967e-06 1.7325369626e-06 1.8047640491e-06 1.751282197e-06 1.5386969173e-06
          1.6262506929e-06 1.7420986341e-06 1.905028713e-06 1.8423632976e-06 1.8955054155e-06 1.7601772085e-06
          1.6581435314e-06 1.039340112e-06 1.7418471479e-06 1.7850380697e-06 1.6177195007e-06 1.0287309846e-06
          1.892495605e-06 1.5853240876e-06 1.7846829392e-06 9.0935765916e-07 8.8388354493e-07 8.6799403286e-07
          1.9666698327e-06 9.1683061103e-07 9.6150522154e-07 9.3614806172e-07 1.5228308865e-06 8.3477476873e-07
          8.1666944057e-07 8.621963416e-07 1.0391426247e-06 1.8326849321e-06 1.8035684335e-06 1.6802440107e-06
          1.9251994498e-06 1.6173353736e-06 8.60680745e-07 1.6212781116e-06 9.786869768e-07 1.9175617647e-06
          1.783061472e-06 1.9676170398e-06 9.6879656197e-07 1.6060354554e-06 1.8941652289e-06 1.8271404857e-06
          1.6549082538e-06 1.7531818672e-06 1.5009038587e-06 9.0411334258e-07 1.5354699296e-06 8.8603708681e-07
          1.525490658e-06 9.1039759475e-07 8.8600847334e-07 1.7814635093e-06 1.7846828755e-06 1.9264103879e-06
          1.7888757344e-06 1.7189454618e-06 1.9666697589e-06 8.7874849451e-07 1.8924955796e-06 1.7028371936e-06
          1.6174376602e-06 9.8184152703e-07 9.3614164811e-07 1.6236192799e-06 1.7338196672e-06 1.6460580841e-06
          9.0442097205e-07 1.9005405059e-06 1.7902152284e-06 1.7059561078e-06 1.7745044879e-06 8.7175953707e-07
          1.8122553747e-06 1.6879038603e-06 1.864082055e-06 9.3677678642e-07 8.541711316e-07 8.336121094e-07
          8.431059859e-07 8.7030042751e-07 1.6674034196e-06 1.8924956107e-06 9.727311756e-07 1.7713004418e-06
          8.2922681003e-07 1.7409757201e-06 1.7846828833e-06 1.8132914616e-06 1.6798785202e-06 1.9470137375e-06
          1.8480394071e-06 1.966669762e-06 1.9048269964e-06 1.9551610386e-06 1.8080081315e-06 1.6549082703e-06
          1.6412767019e-06 1.8674294583e-06 1.5009038737e-06 8.8989040441e-07 8.471074565e-07 1.6619269566e-06
          9.0516355068e-07 1.8313962202e-06 1.7922309671e-06 1.7100755806e-06 1.5114565674e-06 9.7138243533e-07
          1.6276623289e-06 8.3845580524e-07 8.3072639203e-07 1.8318966975e-06 1.6695356078e-06 1.561850429e-06
          1.0001443306e-06 1.8047640416e-06 1.9175617879e-06 9.8998438369e-07 8.6508790491e-07 1.5879859879e-06
          9.1584833313e-07 1.8799625474e-06 9.6025643942e-07 1.6406931418e-06 1.4827442888e-06 8.5520025469e-07
          8.1702341885e-07 9.9031868449e-07 1.6963178997e-06 1.7295655185e-06 1.8020166135e-06 1.0464137653e-06
          1.0357324331e-06 1.8035684244e-06 1.8924955827e-06 1.8955054259e-06 1.6051267978e-06 9.2827303228e-07
          8.6726867213e-07 1.760177217e-06 1.8585396197e-06 1.7260207684e-06 1.0531232316e-06 1.0036443044e-06
          1.9175617956e-06 1.0449970729e-06 1.6506021216e-06 9.1092057276e-07 1.8131508611e-06 9.3775702e-07
          8.7650511387e-07 1.5487970341e-06 8.1598053398e-07
        </DataArray>
      </PointData>
      <CellData>
      </CellData>
      <Points>
        <DataArray type="Float32" Name="Points" NumberOfComponents="3" format="ascii" RangeMin="9.7710072865e-06" RangeMax="0.00013140932729">
          1.9508546757e-05 2.3355933081e-05 5.3267950761e-07 1.9910494302e-05 2.3448448701e-05 1.3878330947e-06
          1.2863576558e-05 1.6954607418e-05 1.7863865196e-06 4.955271379e-06 8.5338015197e-06 1.9832129965e-06
          4.0739774704e-05 1.5488181816e-05 2.5088288567e-06 1.3350778318e-05 1.5605648514e-05 2.5150827696e-06
          4.9444756769e-06 7.7068270912e-06 3.4102140489e-06 4.1283612518e-05 1.5512880054e-05 4.1831704038e-06
          3.1459294405e-05 8.2083897723e-06 5.5388336477e-06 1.7200000002e-05 5.7000002016e-06 6.1699997786e-06
          1.5007550473e-06 9.3332946562e-06 6.3064358073e-06 3.2104348065e-05 9.1012825578e-06 6.7527453211e-06
          2.0213465177e-06 1.0815737369e-05 6.9127195275e-06 1.4600000213e-05 8.9300001491e-06 7.4399999903e-06
          2.5600000299e-05 1.6800000594e-05 7.3599999268e-06 4.6400000429e-05 1.1600000107e-05 7.9499995991e-06
          1.3911637325e-05 3.8678856072e-05 1.6341709852e-06 1.4470423594e-05 4.0270060708e-05 2.2849369543e-06
          2.9405395253e-05 4.0613249439e-05 3.5569123611e-06 4.5740773203e-05 4.1201248678e-05 4.2307556214e-06
          2.9394352168e-05 3.9767408452e-05 5.0164640015e-06 3.1051091355e-05 4.881703353e-05 4.8933929975e-06
          3.9543832827e-05 3.7724883441e-05 5.7346924223e-06 4.5460434194e-05 4.099961734e-05 5.1652205002e-06
          1.7500000467e-05 4.059999992e-05 5.6099997892e-06 3.171251592e-05 4.9732589105e-05 6.1381156229e-06
          4.8408919611e-06 2.9487324355e-05 7.1006970757e-06 4.5984015742e-06 3.265048872e-05 6.7166506597e-06
          4.9591180868e-06 3.3507476473e-05 7.1749227573e-06 3.6887100578e-05 3.9888014726e-05 7.3416181294e-06
          5.4225292843e-06 2.9513739719e-05 8.8914111984e-06 3.7653495383e-05 4.0150087443e-05 8.668747796e-06
          3.6765053665e-05 4.0367162001e-05 8.6337486209e-06 4.6759887482e-06 3.2804007787e-05 7.6157684816e-06
          3.9070469938e-05 3.9035516238e-05 5.0266990002e-06 5.7942315834e-06 3.3399246604e-05 7.1663903327e-06
          3.6719447962e-05 4.0378188714e-05 7.9912706497e-06 3.6619061575e-05 6.9591020292e-05 2.2472925139e-06
          3.6975365219e-05 7.0461712312e-05 2.2360882213e-06 3.5306045902e-05 7.2263079346e-05 2.0109218895e-06
          3.7406809952e-06 5.7287314121e-05 3.1500471778e-06 1.5946157873e-05 6.7347697041e-05 3.7046202124e-06
          3.529370224e-05 7.1317590482e-05 3.6424278278e-06 4.0487611841e-06 5.6561806559e-05 4.8558999879e-06
          4.0461045501e-06 7.3123010225e-05 4.2934825615e-06 1.5462068404e-05 6.7647219112e-05 5.2491350289e-06
          4.9199397836e-06 7.3499562859e-05 5.3749786275e-06 9.6699995993e-06 5.4100000852e-05 5.8999999055e-06
          2.3127144232e-05 6.5455475124e-05 5.9018971115e-06 9.2495474746e-06 6.7044427851e-05 5.8900909607e-06
          4.446303592e-06 7.3243201768e-05 6.1857940636e-06 7.3397204687e-06 6.2182763941e-05 6.6476909524e-06
          2.3687214707e-05 6.3904764829e-05 6.7395808401e-06 9.8325335784e-06 6.870454672e-05 6.5690401243e-06
          5.3388653214e-06 7.066156104e-05 7.7759959822e-06 7.3239266385e-06 6.3476072683e-05 7.897229807e-06
          4.9405716709e-06 7.0353475166e-05 6.2962176344e-06 3.5775130527e-05 6.9837362389e-05 2.1579244276e-06
          4.58289378e-06 5.8027631894e-05 5.0239905249e-06 4.0508057282e-06 7.3303301178e-05 5.1407637329e-06
          5.8967666519e-06 6.2749779318e-05 6.4265859692e-06 4.8877220252e-05 8.394937322e-05 7.7694386391e-07
          4.9739155656e-05 8.4476894699e-05 9.1038202754e-07 9.1181209427e-06 8.3840292064e-05 1.8764535525e-06
          3.8520891394e-05 8.4587321908e-05 1.6406969507e-06 5.2562181736e-06 7.8663426393e-05 2.7978601338e-06
          5.8258970057e-06 8.0285644799e-05 3.4613112803e-06 8.6101117631e-06 8.4154613432e-05 3.497279522e-06
          3.9102527808e-05 8.461374091e-05 3.4314116419e-06 7.2119983088e-06 8.639076259e-05 2.8388856208e-06
          4.3299998651e-05 7.6700001955e-05 3.8200000745e-06 3.9977541746e-05 9.1294459708e-05 3.8791431507e-06
          3.8459606003e-05 9.1890942713e-05 3.6465487483e-06 7.3573437476e-06 8.6897081928e-05 4.6740251491e-06
          8.2874003056e-06 8.6683234258e-05 4.7696194088e-06 2.4994955311e-05 8.9341396233e-05 4.5081997087e-06
          4.5606262574e-05 7.7993892774e-05 5.3175613175e-06 4.6179902711e-05 7.9568140791e-05 5.4980851019e-06
          2.891958502e-05 7.4475465226e-05 6.105092325e-06 4.7327397624e-05 7.6684234955e-05 6.2688081925e-06
          2.5424515115e-05 8.9673667389e-05 6.1041387198e-06 1.1939481737e-05 7.6021315181e-05 6.9703496592e-06
          4.7705791076e-05 9.5543546195e-05 6.6546258495e-06 2.9313909181e-05 7.4335752288e-05 7.4789691098e-06
          1.2474863979e-05 7.4538962508e-05 7.7711074482e-06 4.8036195949e-05 7.7665368735e-05 7.6026835814e-06
          4.7693956731e-05 9.4637100119e-05 8.2187698354e-06 4.8975743994e-05 8.4153405624e-05 1.6616349967e-06
          2.9770804758e-05 7.4375646363e-05 6.1339883359e-06 4.9571248383e-05 8.4967810835e-05 1.5610253286e-06
          7.0067626439e-06 8.6842119345e-05 3.5088551158e-06 2.8799022402e-05 7.4026436778e-05 6.8435815592e-06
          6.34463795e-05 1.490222985e-05 2.3206607693e-06 5.6400000176e-05 2.2800000806e-05 2.2599999738e-06
          5.0598584494e-05 1.3253639736e-05 3.1514807688e-06 6.3967920141e-05 1.345819328e-05 3.1007182315e-06
          5.1313574659e-05 1.362477451e-05 4.0623694986e-06 5.8752480982e-05 5.3937824305e-06 4.4044477363e-06
          8.0120895291e-05 1.8887323677e-05 4.230696959e-06 9.360590775e-05 8.0726595115e-06 4.8889060054e-06
          5.8255758631e-05 5.7011184253e-06 5.9892581703e-06 9.2999776825e-05 1.6045083612e-05 5.5203590819e-06
          5.4442876717e-05 1.7005660993e-05 5.557933946e-06 8.0702528066e-05 1.8913739041e-05 6.0214115365e-06
          9.3593836937e-05 7.1480340011e-06 6.4844093686e-06 7.0900001447e-05 1.2700000298e-05 6.1400000959e-06
          9.3582319096e-05 1.7703936464e-05 6.1987907429e-06 8.7608867034e-05 3.7115589748e-06 7.4359959399e-06
          5.5120690376e-05 1.7943906641e-05 6.8335025389e-06 9.3100003141e-05 2.3900000087e-05 7.4300000961e-06
          8.7210573838e-05 3.4034756027e-06 5.956217592e-06 5.0706257753e-05 1.3056745956e-05 4.0354757402e-06
          5.3111754823e-05 4.8652444093e-05 1.5751725186e-06 5.7245419157e-05 3.8488436985e-05 2.5162130441e-06
          5.3756361012e-05 4.8966554459e-05 2.929057473e-06 5.7778019254e-05 3.8512625906e-05 4.1559528654e-06
          7.2800001362e-05 4.9700000091e-05 5.4199999795e-06 8.7436885224e-05 4.9650749133e-05 5.6335748013e-06
          8.8832530309e-05 2.6562165658e-05 8.3608092609e-06 5.3081657825e-05 4.8320063797e-05 2.9447837733e-06
          8.8349588623e-05 2.5186925996e-05 7.7983695519e-06 5.2877821872e-05 4.8484187573e-05 2.354948947e-06
          7.3884213634e-05 7.3260911449e-05 9.2659860229e-07 5.2141422202e-05 5.3332129028e-05 1.867175456e-06
          9.2474583653e-05 5.3549552831e-05 2.0176050839e-06 5.2890558436e-05 5.3868705436e-05 3.2856546568e-06
          7.9340730736e-05 7.040122e-05 3.8708976717e-06 7.4399998994e-05 7.1700000262e-05 3.7800000428e-06
          7.6614218415e-05 5.6486602261e-05 4.8657225307e-06 7.90604754e-05 7.0199646871e-05 4.8050801524e-06
          7.5138705142e-05 5.7501147239e-05 5.1801916925e-06 8.7945212726e-05 5.1098271797e-05 6.2255762714e-06
          7.645272126e-05 5.745017188e-05 6.1582522903e-06 7.9899997218e-05 6.6799999331e-05 7.1700001172e-06
          7.5562893471e-05 5.7666584325e-05 6.1201599237e-06 5.279072866e-05 5.2952542319e-05 4.5889751163e-06
          9.3089009169e-05 5.4400050431e-05 3.1738788948e-06 7.3973926192e-05 7.3446695751e-05 1.7321859787e-06
          7.5965508586e-05 5.7444180129e-05 5.1420915952e-06 7.4650233728e-05 7.4027579103e-05 1.3555094256e-06
          7.4345734902e-05 8.6203996034e-05 1.4297054349e-06 5.0700000429e-05 7.5800002378e-05 1.5699999949e-06
          7.4868599768e-05 8.4756313299e-05 2.21173309e-06 9.7646203358e-05 8.790515858e-05 2.512640549e-06
          9.7354997706e-05 8.7695705588e-05 3.4833421978e-06 8.2209917309e-05 8.9103479695e-05 3.779086228e-06
          7.1800001024e-05 9.4000002719e-05 4.5400001909e-06 7.0911635703e-05 8.9278852101e-05 5.3941707847e-06
          8.3274360804e-05 8.8944114395e-05 5.0955809456e-06 8.5541199951e-05 7.778739382e-05 6.4261203079e-06
          8.6879459559e-05 7.8268087236e-05 6.107669833e-06 7.1470421972e-05 9.0870060376e-05 6.0449369812e-06
          7.5334726716e-05 9.3994378403e-05 6.5225945036e-06 6.4105668571e-05 8.983394946e-05 7.4211875472e-06
          5.3505718824e-05 9.5713650808e-05 7.0591963777e-06 5.4474920034e-05 9.5490802778e-05 7.1588137871e-06
          9.1540903668e-05 8.3532337158e-05 7.7870272435e-06 9.2471527751e-05 8.4675957623e-05 7.7465620052e-06
          7.6028809417e-05 9.4955146778e-05 7.8287830547e-06 9.3014612503e-05 8.4481689555e-05 8.5235178631e-06
          6.4094085246e-05 8.8946675532e-05 8.95224548e-06 9.2964241048e-05 8.4778213932e-05 9.3662320069e-06
          8.6422936874e-05 7.7632110333e-05 6.3769816734e-06 8.264209464e-05 8.9271299657e-05 6.5085441747e-06
          8.6711923359e-05 7.8757911979e-05 6.7568630584e-06
        </DataArray>
      </Points>
      <Cells>
        <DataArray type="Int64" Name="connectivity" format="ascii" RangeMin="0" RangeMax="164">
          0 1 2 3 4 5
          6 7 8 9 10 11
          12 13 14 15 16 17
          18 19 20 21 22 23
          24 25 26 27 28 29
          30 31 32 33 34 35
          36 37 38 39 40 41
          42 43 44 45 46 47
          48 49 50 51 52 53
          54 55 56 57 58 59
          60 61 62 63 64 65
          66 67 68 69 70 71
          72 73 74 75 76 77
          78 79 80 81 82 83
          84 85 86 87 88 89
          90 91 92 93 94 95
          96 97 98 99 100 101
          102 103 104 105 106 107
          108 109 110 111 112 113
          114 115 116 117 118 119
          120 121 122 123 124 125
          126 127 128 129 130 131
          132 133 134 135 136 137
          138 139 140 141 142 143
          144 145 146 147 148 149
          150 151 152 153 154 155
          156 157 158 159 160 161
          162 163 164
        </DataArray>
        <DataArray type="Int64" Name="offsets" format="ascii" RangeMin="1" RangeMax="165">
          1 2 3 4 5 6
          7 8 9 10 11 12
          13 14 15 16 17 18
          19 20 21 22 23 24
          25 26 27 28 29 30
          31 32 33 34 35 36
          37 38 39 40 41 42
          43 44 45 46 47 48
          49 50 51 52 53 54
          55 56 57 58 59 60
          61 62 63 64 65 66
          67 68 69 70 71 72
          73 74 75 76 77 78
          79 80 81 82 83 84
          85 86 87 88 89 90
          91 92 93 94 95 96
          97 98 99 100 101 102
          103 104 105 106 107 108
          109 110 111 112 113 114
          115 116 117 118 119 120
          121 122 123 124 125 126
          127 128 129 130 131 132
          133 134 135 136 137 138
          139 140 141 142 143 144
          145 146 147 148 149 150
          151 152 153 154 155 156
          157 158 159 160 161 162
          163 164 165
        </DataArray>
        <DataArray type="UInt8" Name="types" format="ascii" RangeMin="1" RangeMax="1">
          1 1 1 1 1 1
          1 1 1 1 1 1
          1 1 1 1 1 1
          1 1 1 1 1 1
          1 1 1 1 1 1
          1 1 1 1 1 1
          1 1 1 1 1 1
          1 1 1 1 1 1
          1 1 1 1 1 1
          1 1 1 1 1 1
          1 1 1 1 1 1
          1 1 1 1 1 1
          1 1 1 1 1 1
          1 1 1 1 1 1
          1 1 1 1 1 1
          1 1 1 1 1 1
          1 1 1 1 1 1
          1 1 1 1 1 1
          1 1 1 1 1 1
          1 1 1 1 1 1
          1 1 1 1 1 1
          1 1 1 1 1 1
          1 1 1 1 1 1
          1 1 1 1 1 1
          1 1 1 1 1 1
          1 1 1 1 1 1
          1 1 1 1 1 1
          1 1 1
        </DataArray>
      </Cells>
    </Piece>
  </UnstructuredGrid>
</VTKFile>
