<?xml version="1.0"?>
<VTKFile type="UnstructuredGrid" version="0.1" byte_order="LittleEndian" header_type="UInt32" compressor="vtkZLibDataCompressor">
  <UnstructuredGrid>
    <Piece NumberOfPoints="1108" NumberOfCells="1108">
      <PointData>
        <DataArray type="Int32" Name="id" format="ascii" RangeMin="1" RangeMax="1108">
          668 298 477 529 794 623
          206 624 793 888 19 59
          134 531 244 385 308 625
          626 938 669 50 666 174
          343 990 589 123 484 241
          845 318 49 457 97 495
          42 324 22 131 15 44
          118 474 3 264 196 991
          846 745 748 766 791 792
          844 550 605 887 936 937
          989 530 1047 1048 1050 1051
          75 203 460 40 276 93
          430 245 386 1 593 627
          369 266 594 407 408 256
          78 671 629 150 117 461
          370 670 628 175 672 54
          362 497 475 532 674 595
          286 109 533 675 711 24
          7 257 387 215 673 124
          363 534 225 106 389 633
          119 433 434 371 388 207
          62 561 373 676 176 432
          634 677 141 597 499 246
          372 329 596 562 535 435
          20 84 267 713 501 154
          712 498 310 598 258 630
          436 309 220 500 502 208
          374 277 632 161 631 198
          344 536 61 478 504 166
          678 299 503 188 137 462
          680 679 390 311 749 750
          751 752 795 796 797 798
          799 800 801 802 803 804
          805 806 807 808 133 1002
          842 847 848 849 850 889
          890 891 892 893 894 895
          896 897 898 899 900 901
          459 939 940 941 942 406
          992 993 994 995 996 997
          998 999 1000 1001 592 886
          1063 1052 1053 1054 1055 1056
          1057 1058 1059 1060 1061 1062
          313 121 507 636 312 209
          635 32 505 537 506 411
          391 268 682 77 51 599
          479 177 681 226 563 330
          600 601 275 148 314 410
          85 409 508 538 325 60
          235 714 463 105 690 315
          186 540 81 221 539 67
          300 437 227 151 92 167
          129 565 438 345 541 375
          18 57 542 637 458 907
          192 14 160 216 364 145
          135 464 412 715 602 543
          857 569 82 716 480 346
          718 393 26 283 683 717
          269 228 906 113 89 12
          288 348 746 753 754 755
          756 856 759 764 905 814
          809 810 811 812 813 851
          852 853 854 855 883 902
          903 904 943 944 945 946
          947 948 949 950 951 1003
          1004 1005 1006 1007 1008 547
          1064 1065 1066 1067 1068 1069
          1070 1071 1072 1073 1074 511
          544 566 316 510 37 317
          719 914 210 481 111 638
          229 247 34 270 366 641
          222 413 513 90 350 512
          439 365 567 545 546 367
          640 168 142 603 331 79
          392 187 199 101 642 349
          236 351 643 604 514 2
          259 217 649 684 332 157
          568 126 564 686 35 46
          560 69 440 394 644 278
          483 515 115 622 287 496
          86 482 720 685 289 271
          182 414 758 416 72 149
          415 441 200 721 645 333
          136 691 1017 687 517 352
          39 48 120 646 13 384
          353 516 181 647 590 23
          158 688 211 465 204 189
          549 689 96 341 30 648
          548 570 99 95 354 230
          710 347 304 242 155 762
          763 761 765 815 816 817
          818 819 820 821 822 823
          824 442 858 859 860 861
          862 863 864 865 866 301
          757 908 909 910 911 912
          913 509 571 237 934 953
          954 955 956 957 958 959
          960 961 962 975 952 1009
          1010 1011 1012 1013 1014 1015
          1016 1075 1076 1077 1078 1079
          1080 1081 1082 1083 1084 1085
          1086 58 127 279 43 692
          418 466 110 723 56 417
          572 218 355 190 73 405
          476 38 573 722 280 395
          6 223 574 33 575 377
          650 248 179 47 368 159
          243 146 305 41 87 116
          91 17 173 88 265 169
          102 306 197 747 767 789
          825 867 868 869 485 884
          915 935 963 964 965 1018
          1019 1020 518 107 238 606
          607 357 396 724 576 486
          693 966 725 11 290 162
          334 419 420 487 191 608
          249 66 694 726 651 488
          103 489 272 138 319 551
          467 827 45 284 130 10
          152 36 768 769 770 771
          772 826 843 870 871 872
          916 917 918 919 1021 1022
          1023 1049 1087 1088 1089 1090
          1091 695 185 652 285 398
          250 397 655 25 519 577
          443 609 696 335 163 610
          55 74 444 973 80 147
          291 727 193 468 730 378
          612 260 611 5 552 422
          697 326 320 108 578 423
          653 446 183 140 654 445
          424 273 728 591 4 379
          164 613 579 261 132 490
          700 184 342 302 520 231
          729 292 447 698 9 614
          336 448 293 76 213 294
          52 731 491 492 470 195
          699 521 469 139 224 773
          774 775 776 777 778 779
          780 790 828 829 830 831
          832 833 212 873 874 920
          921 922 923 924 925 967
          968 969 970 971 972 356
          988 1024 1025 1026 1027 1028
          1029 1030 1097 1093 1094 1095
          1096 742 701 449 743 1108
          21 64 471 429 104 125
          450 580 639 656 65 251
          734 68 281 709 321 733
          29 667 581 527 156 122
          399 702 262 736 170 735
          451 327 553 380 657 421
          282 381 737 232 554 472
          328 658 400 452 358 522
          703 295 28 219 555 178
          8 401 523 582 337 583
          738 94 83 205 615 114
          382 338 661 53 255 705
          556 659 253 425 704 234
          63 274 454 618 453 359
          660 233 201 144 584 263
          402 617 426 165 706 404
          663 664 153 31 431 252
          383 70 585 403 455 665
          616 296 558 194 172 240
          708 741 557 27 360 619
          171 427 473 739 214 662
          71 528 586 100 740 707
          303 322 112 361 428 98
          180 254 128 16 620 744
          339 524 621 323 143 525
          526 588 587 559 493 494
          340 732 307 297 456 202
          781 782 783 784 785 786
          787 788 760 834 835 836
          837 838 839 840 841 875
          876 877 878 879 880 881
          882 885 926 927 928 929
          930 931 932 933 376 974
          987 976 977 978 979 980
          981 982 983 984 985 986
          239 1031 1032 1033 1034 1035
          1036 1037 1038 1039 1040 1041
          1042 1043 1044 1045 1046 1098
          1099 1100 1101 1102 1103 1104
          1105 1106 1107 1092
        </DataArray>
        <DataArray type="Int32" Name="type" format="ascii" RangeMin="1" RangeMax="2">
          2 2 2 2 2 2
          2 2 2 2 1 1
          1 2 2 2 2 2
          2 2 2 1 1 2
          2 2 1 1 2 1
          2 2 1 1 1 1
          1 1 1 1 1 1
          1 1 1 1 1 2
          2 1 2 2 2 2
          2 2 2 2 2 2
          2 2 1 1 2 2
          2 1 2 1 2 1
          1 2 2 1 2 2
          2 2 2 2 2 2
          2 2 2 1 1 2
          2 2 2 2 2 1
          1 2 1 2 2 2
          2 2 2 2 2 1
          1 2 2 1 2 2
          1 2 2 2 2 2
          1 2 2 2 2 2
          2 2 2 2 2 2
          2 2 2 2 2 2
          2 2 2 2 2 2
          1 1 2 2 2 2
          2 2 2 2 2 2
          2 2 2 2 2 2
          2 2 2 2 2 2
          2 2 2 2 2 1
          2 2 2 2 2 2
          2 2 2 2 2 2
          2 2 2 2 2 2
          2 2 2 2 2 2
          2 2 2 2 2 2
          1 2 2 2 2 2
          2 2 2 2 2 2
          2 2 2 2 2 2
          2 2 2 2 2 2
          2 2 2 2 2 2
          2 2 2 2 2 2
          2 2 2 2 2 2
          2 2 2 2 2 2
          2 2 2 2 2 2
          2 1 2 2 2 2
          2 2 2 2 1 2
          2 2 2 2 2 2
          2 2 1 2 2 2
          1 2 2 2 1 1
          2 2 2 2 2 2
          1 2 1 2 2 2
          2 2 2 1 1 1
          1 2 2 2 2 2
          1 1 2 2 1 2
          1 1 1 1 1 1
          2 2 2 2 2 2
          2 2 1 2 2 2
          2 2 1 1 2 2
          2 2 2 2 1 1
          2 2 1 2 2 2
          2 2 2 2 2 2
          2 2 2 2 2 2
          2 2 2 2 1 2
          2 2 2 2 2 2
          2 2 2 2 2 2
          2 2 2 2 2 2
          2 2 2 2 2 2
          2 2 2 2 2 2
          2 2 2 2 1 2
          2 2 2 2 2 2
          2 2 1 2 1 2
          2 2 2 1 2 2
          2 1 2 2 2 1
          2 1 2 2 2 2
          2 1 2 1 2 2
          2 2 2 2 2 1
          2 1 2 2 2 2
          2 1 2 2 1 1
          1 2 2 2 2 2
          2 2 1 1 2 1
          1 2 2 2 2 2
          2 2 2 2 2 2
          2 2 2 2 2 2
          2 2 2 2 2 2
          1 1 1 2 1 1
          2 2 2 2 1 1
          2 2 2 2 1 2
          2 2 1 1 1 2
          2 2 1 1 2 2
          1 2 1 1 2 2
          2 2 2 2 2 2
          2 2 2 2 2 2
          2 2 2 2 2 2
          2 2 2 2 2 2
          2 2 2 2 2 2
          2 2 2 2 1 2
          2 2 2 2 2 2
          2 2 2 2 2 2
          2 2 2 2 2 2
          2 2 2 2 2 2
          2 2 2 2 2 2
          2 1 2 2 1 2
          2 2 1 2 1 2
          2 1 2 2 2 1
          1 1 2 2 2 2
          1 2 2 1 2 2
          2 2 1 1 1 2
          1 1 1 1 1 1
          1 1 1 1 1 1
          1 1 1 1 2 1
          2 2 2 2 2 1
          2 1 2 2 2 2
          2 2 2 2 2 2
          2 2 2 2 2 2
          2 2 2 1 2 2
          2 2 2 2 2 2
          2 2 2 2 2 2
          1 2 2 2 2 2
          2 2 1 1 1 1
          1 1 2 2 2 2
          2 2 1 2 2 2
          2 2 2 2 2 2
          2 1 2 2 2 2
          2 2 2 2 1 2
          2 2 2 1 2 2
          2 2 2 2 2 2
          1 2 2 2 1 1
          2 2 1 2 2 2
          2 2 2 1 2 2
          2 1 2 2 2 2
          2 2 2 1 2 2
          2 2 2 1 1 2
          2 2 2 2 2 2
          2 2 1 2 2 2
          2 2 2 2 1 2
          2 2 2 2 2 2
          1 2 2 2 2 2
          2 2 2 2 1 2
          2 2 2 2 2 2
          2 1 2 2 2 2
          2 2 2 2 2 2
          2 2 2 2 2 2
          2 2 2 2 2 2
          1 2 2 2 2 2
          2 2 2 2 2 2
          2 2 2 2 2 2
          1 2 2 2 1 2
          2 2 2 2 2 2
          2 2 2 2 2 2
          1 1 2 1 2 2
          2 2 2 2 2 2
          2 1 2 2 2 2
          2 2 2 2 2 2
          1 2 2 2 2 2
          2 2 1 1 2 2
          1 2 2 2 2 2
          2 1 1 1 2 2
          2 2 2 1 1 2
          2 2 2 2 2 2
          2 2 2 2 2 2
          2 2 2 2 2 2
          2 2 2 2 2 2
          2 2 1 1 1 2
          2 2 2 2 2 2
          2 2 2 1 2 2
          2 2 2 1 2 2
          2 2 2 2 2 2
          2 1 2 1 2 2
          2 2 2 2 2 1
          2 2 2 1 2 2
          2 2 2 2 2 2
          2 2 2 2 2 2
          2 2 1 2 2 2
          2 2 2 2 2 2
          2 2 2 2 2 2
          2 2 2 2 2 2
          2 2 2 2 2 2
          2 1 2 2 2 2
          2 2 2 2 2 2
          2 2 2 2 2 2
          2 2 2 2 2 2
          2 2 2 2 2 2
          2 2 2 2 2 2
          2 2 2 2 2 2
          2 2 2 2 2 2
          2 2 2 2
        </DataArray>
        <DataArray type="Float64" Name="diameter" format="ascii" RangeMin="7.8309277427e-07" RangeMax="1.9676042322e-06">
          1.0271961244e-06 8.2324143242e-07 9.2847747473e-07 9.8924586634e-07 9.9134530204e-07 9.939796099e-07
          9.7436047792e-07 1.0233862454e-06 9.6050742557e-07 8.6475416653e-07 1.551689751e-06 1.6510232172e-06
          1.9155433348e-06 8.5616440729e-07 9.3185931376e-07 8.7664273768e-07 9.3124160189e-07 1.0257531165e-06
          1.0420938857e-06 8.9544769869e-07 1.0418745029e-06 1.5802222259e-06 1.5997331908e-06 8.4660755542e-07
          8.8875011656e-07 8.4179671551e-07 1.5586299315e-06 1.7249903777e-06 8.9859044974e-07 1.7000983134e-06
          9.6234835684e-07 9.6689951438e-07 1.6996009592e-06 1.651492593e-06 1.8745416448e-06 1.6319284106e-06
          1.7793964386e-06 1.6901573576e-06 1.6286996348e-06 1.8646900101e-06 1.5678385717e-06 1.8644958717e-06
          1.7162273172e-06 1.7201046485e-06 1.8168786091e-06 1.724912808e-06 1.7990639195e-06 8.5395730086e-07
          8.6945156349e-07 1.6485387217e-06 1.0399001188e-06 9.9647816665e-07 9.9386238726e-07 9.1095024226e-07
          9.5164095065e-07 9.8017615891e-07 8.9761835189e-07 9.5688281192e-07 9.3682034136e-07 8.4287489492e-07
          8.8690010949e-07 8.4754111836e-07 1.5818503831e-06 1.5605837451e-06 8.2655853511e-07 7.9353382751e-07
          9.0538815708e-07 1.7301206683e-06 8.7588595068e-07 1.6456013668e-06 7.9408006595e-07 1.9076444728e-06
          1.7379549398e-06 8.4030423954e-07 8.9915818031e-07 1.6714200077e-06 8.999890786e-07 8.8739084819e-07
          1.0039458878e-06 8.964178354e-07 1.0306902013e-06 1.0556112487e-06 9.2172758762e-07 9.5819056193e-07
          9.5040908478e-07 9.7102766857e-07 8.5124991695e-07 1.8454625404e-06 1.7087341416e-06 8.9630959772e-07
          8.8922623887e-07 7.9866387812e-07 9.9973755389e-07 8.3885467644e-07 9.687016575e-07 1.7599477035e-06
          1.6716840026e-06 8.7560750511e-07 1.6406979431e-06 9.2524239572e-07 1.0203222047e-06 7.8864751918e-07
          1.0365683681e-06 9.5855485956e-07 9.0190495871e-07 8.1901133062e-07 9.6864643222e-07 1.9604545406e-06
          1.86631741e-06 8.8173944556e-07 1.0189322719e-06 1.7718491274e-06 1.0421857372e-06 8.6256204568e-07
          1.6829901429e-06 9.3088880193e-07 1.0405394999e-06 1.0565852198e-06 9.7024153111e-07 7.8582675967e-07
          1.9211957348e-06 9.8491126655e-07 9.8257063156e-07 9.9427979683e-07 9.9587522585e-07 8.9139407881e-07
          1.0483393372e-06 9.1388801489e-07 1.0308549962e-06 1.0587122332e-06 9.8967502146e-07 1.0259761566e-06
          9.1193647615e-07 1.0553610323e-06 1.0388359524e-06 9.264308869e-07 8.2772621569e-07 9.2859703447e-07
          9.558339984e-07 8.6656077004e-07 9.2566287338e-07 8.9232489459e-07 1.0581996372e-06 8.9729019907e-07
          1.7489594914e-06 1.9248254423e-06 9.657109539e-07 9.8607978946e-07 9.2101228222e-07 8.8513641351e-07
          1.0029431816e-06 1.0068543113e-06 9.825021381e-07 8.8111655402e-07 9.7956294649e-07 9.1740497095e-07
          1.0369209641e-06 9.0106102069e-07 9.507521785e-07 8.5047656357e-07 9.4701501048e-07 9.2919782954e-07
          8.9629184048e-07 1.0532182743e-06 1.0491922158e-06 8.0070190546e-07 1.0274431931e-06 8.7152263913e-07
          1.0084841379e-06 1.0502953991e-06 9.4811093668e-07 9.5219591886e-07 9.4869332577e-07 1.8572763216e-06
          8.467542123e-07 9.2942808872e-07 9.0547837789e-07 1.0339040561e-06 9.6169176265e-07 8.5817894184e-07
          1.0499759946e-06 1.0148919161e-06 1.012686705e-06 9.5294835718e-07 9.9197701381e-07 9.9059427796e-07
          9.2176058208e-07 1.0103196787e-06 9.7981040157e-07 9.9112630438e-07 9.4535539519e-07 1.0060358373e-06
          9.0177684222e-07 9.9782007021e-07 9.9075168149e-07 8.7986449038e-07 9.272131349e-07 1.0151649793e-06
          9.7458335616e-07 9.6738011483e-07 9.4053479322e-07 9.7371998291e-07 1.0381506858e-06 8.9282764459e-07
          1.5102259545e-06 9.885044022e-07 9.2554559151e-07 9.7318550236e-07 9.1857014498e-07 9.1114622487e-07
          9.6063476071e-07 8.8024890367e-07 9.4119487228e-07 9.035327733e-07 8.8274161424e-07 9.1902599531e-07
          9.4793993366e-07 8.7971451212e-07 9.2920982234e-07 8.5705472002e-07 9.6887403286e-07 8.7817550371e-07
          9.2049495084e-07 8.6414230849e-07 8.2791428369e-07 9.0508767646e-07 8.7100739481e-07 9.4446376903e-07
          8.5397841884e-07 8.358573379e-07 8.4017723495e-07 8.7584314781e-07 8.1147192671e-07 8.2760983874e-07
          8.1099503495e-07 9.1574715464e-07 8.5028186339e-07 8.3488982432e-07 8.9168320038e-07 8.8766547537e-07
          8.4976840876e-07 8.9430559538e-07 8.7115201794e-07 8.4662325646e-07 9.1188181548e-07 8.6345442226e-07
          8.9243238046e-07 8.7128226806e-07 8.9768126554e-07 8.1342595122e-07 7.8309277427e-07 9.0723611835e-07
          8.5993507691e-07 9.3034426219e-07 8.9492679947e-07 9.8923834817e-07 8.9212196643e-07 8.4393327072e-07
          9.8135109902e-07 1.7901469949e-06 1.0287778138e-06 9.0407750234e-07 8.605481023e-07 8.6183846286e-07
          9.8449030834e-07 1.0189523271e-06 1.035068018e-06 8.3442463215e-07 1.717917217e-06 8.6974707024e-07
          8.912191133e-07 9.8568009811e-07 7.9307674928e-07 1.0592210721e-06 9.350110539e-07 8.6727447034e-07
          8.4626492663e-07 8.4531303549e-07 1.734535015e-06 8.0414147369e-07 1.0107823327e-06 9.5718590686e-07
          1.7998817874e-06 8.6497705263e-07 8.3238493437e-07 8.3251914958e-07 1.7513088527e-06 1.6910961145e-06
          9.0919959309e-07 9.8966490168e-07 8.8642875847e-07 9.2661893917e-07 1.0172310719e-06 1.0186369184e-06
          1.9008937983e-06 8.5962601609e-07 1.9599889686e-06 9.3790142172e-07 9.101847022e-07 8.1538139476e-07
          8.9689527262e-07 9.9338742631e-07 9.9312133984e-07 1.8607792695e-06 1.7190169706e-06 1.8555004672e-06
          1.9647670453e-06 8.6871026444e-07 9.715011e-07 9.1301758504e-07 9.2860317276e-07 9.6429919538e-07
          1.8811083759e-06 1.7194918521e-06 8.7139576315e-07 1.019187875e-06 1.6987366581e-06 9.4451486706e-07
          1.806208813e-06 1.9462949781e-06 1.8486857741e-06 1.7251929617e-06 1.7110625902e-06 1.8188899136e-06
          8.4360228494e-07 9.5806195769e-07 8.0785720522e-07 1.0559823462e-06 1.0502707374e-06 8.9108372453e-07
          8.9791080393e-07 8.8642368138e-07 1.9282318369e-06 1.0153350984e-06 8.9091369049e-07 9.2061944492e-07
          9.8726635602e-07 1.0119335202e-06 1.9093314885e-06 1.7938292871e-06 1.0068770225e-06 1.0141284203e-06
          9.8969061265e-07 9.1407706959e-07 8.5678300657e-07 8.2671446988e-07 1.6736955713e-06 1.5171569038e-06
          9.8830035336e-07 9.7196500862e-07 1.5335296591e-06 1.00838428e-06 9.2706434102e-07 9.876803704e-07
          1.0272447857e-06 9.5493610774e-07 1.0108906912e-06 9.9714884722e-07 9.1380631101e-07 9.5936778048e-07
          1.0004053527e-06 1.0146604711e-06 9.0703550688e-07 9.1295888787e-07 9.7577524782e-07 9.5470875716e-07
          9.6882811778e-07 9.6606108694e-07 9.5048884677e-07 9.2830518325e-07 1.6600017179e-06 8.8829638016e-07
          8.8099763422e-07 9.2028747967e-07 9.1413148562e-07 9.3322648768e-07 8.9140760946e-07 9.5142503e-07
          8.5617493364e-07 9.2568446309e-07 9.2473059786e-07 8.1888389865e-07 8.6219717226e-07 8.8187847376e-07
          8.972910492e-07 8.6223246253e-07 8.8551414518e-07 9.2050179685e-07 8.6284675835e-07 9.1832992509e-07
          8.8973861227e-07 8.4029828525e-07 8.6712588927e-07 8.8222890695e-07 8.2291561733e-07 8.6841168044e-07
          8.4552800903e-07 8.309907686e-07 8.6867471126e-07 9.0044370914e-07 8.2342902353e-07 8.8992768292e-07
          9.3394514177e-07 8.575664871e-07 9.1878081856e-07 9.548022629e-07 1.7205800674e-06 9.5717346071e-07
          9.5660714843e-07 9.3625627174e-07 9.2401091681e-07 8.8001646727e-07 8.8962379473e-07 1.0571973877e-06
          7.9785865398e-07 1.0201503742e-06 1.7006949908e-06 9.3412891791e-07 1.7261399838e-06 8.2954049049e-07
          8.624005028e-07 1.0353637503e-06 9.2749055607e-07 1.8010138747e-06 9.4203380672e-07 9.5815293945e-07
          8.9064939638e-07 1.7126184503e-06 8.6403856031e-07 8.3888936683e-07 8.6524649798e-07 1.632675944e-06
          1.0059385836e-06 1.8546071376e-06 1.0318357245e-06 9.1440300581e-07 9.291016278e-07 1.0182467487e-06
          9.1151539079e-07 1.9020893977e-06 9.9041211754e-07 1.723265992e-06 9.3639540183e-07 7.9225197936e-07
          9.937032216e-07 8.3410230469e-07 1.0134065939e-06 9.1564610156e-07 8.8878510569e-07 1.5969414319e-06
          1.0340959111e-06 1.7236721919e-06 9.9692156297e-07 7.8727654335e-07 9.0436771994e-07 8.3233223123e-07
          8.2676946349e-07 1.9601129234e-06 7.9657698766e-07 8.8289282187e-07 1.907648432e-06 1.8004294456e-06
          1.5770235985e-06 9.2515885596e-07 8.9079026131e-07 1.0262120496e-06 1.0390872015e-06 1.0584568997e-06
          9.0185500118e-07 1.0132553951e-06 1.9676042322e-06 1.6768774455e-06 9.4517908677e-07 1.5631422601e-06
          1.9273035223e-06 9.2210972488e-07 9.9842503068e-07 1.0165116641e-06 1.0445241634e-06 1.0078476106e-06
          9.2050513418e-07 9.4513779141e-07 9.8614944993e-07 9.7744694691e-07 9.9912012293e-07 9.7629329993e-07
          1.0139379952e-06 8.8955100564e-07 1.0142071478e-06 9.6221305722e-07 8.9972435924e-07 9.8906323262e-07
          1.0272355827e-06 1.0517862268e-06 8.0529028101e-07 7.9195575238e-07 9.4370344262e-07 8.9855532306e-07
          1.8644106315e-06 1.7605453655e-06 1.6704456165e-06 8.538913158e-07 1.7051981781e-06 1.7799660958e-06
          9.8645617117e-07 8.7815766542e-07 1.0016036932e-06 9.2338533944e-07 1.7326308182e-06 1.7054837594e-06
          1.0510623303e-06 8.4227513162e-07 1.0020211889e-06 9.600999572e-07 1.7901759297e-06 9.3645361682e-07
          1.0511207359e-06 1.0618965149e-06 1.6148359715e-06 1.738342635e-06 1.6267982231e-06 1.0227083997e-06
          1.0548038408e-06 9.1892133233e-07 1.5375413185e-06 1.8208154288e-06 9.4134369873e-07 9.1541338303e-07
          1.632114195e-06 9.2608846939e-07 1.7792156066e-06 1.7642507406e-06 9.2495150261e-07 9.0475681925e-07
          1.0025731737e-06 9.8176867016e-07 1.0230343229e-06 9.444208956e-07 1.0152095634e-06 9.0979322492e-07
          1.0060314071e-06 9.9522469664e-07 8.8672904189e-07 9.2088222153e-07 1.0119561742e-06 9.647264455e-07
          9.641429859e-07 1.0136885649e-06 9.2591344003e-07 9.6268704279e-07 9.9330952232e-07 9.1218269943e-07
          9.6920269585e-07 9.1580345399e-07 9.4484030949e-07 9.7616769576e-07 9.1341138133e-07 9.4575040455e-07
          9.4398829666e-07 9.2829527704e-07 9.0198664638e-07 8.8116625582e-07 9.1615425442e-07 9.6398939562e-07
          8.766382839e-07 8.8803483213e-07 9.6454901194e-07 8.9026020526e-07 1.4852681481e-06 8.3248601135e-07
          9.4714352777e-07 8.5619990197e-07 8.7895556863e-07 8.3279994249e-07 9.0227201592e-07 8.6752195774e-07
          8.7425275801e-07 8.5770097989e-07 8.6670883136e-07 8.7399622684e-07 9.3112481704e-07 8.7073590872e-07
          8.2348913869e-07 8.2984828875e-07 8.0169020136e-07 9.1468866079e-07 8.5963799378e-07 8.3587560501e-07
          8.9968365436e-07 8.985611013e-07 8.599914766e-07 8.5771323734e-07 9.0453285536e-07 8.5840070025e-07
          8.9088098622e-07 8.8550893776e-07 9.0996134393e-07 8.1136305289e-07 7.8609177585e-07 8.9732438142e-07
          8.4527338386e-07 1.659067879e-06 8.4385246742e-07 9.9813891151e-07 1.8565187197e-06 1.0625031584e-06
          9.931714593e-07 1.0255880285e-06 1.6931053882e-06 1.010774288e-06 1.6909927366e-06 9.5857365425e-07
          1.0621936258e-06 1.7825982345e-06 9.689297525e-07 1.0277292429e-06 9.6483307646e-07 1.7162925681e-06
          1.5889584713e-06 1.7064587926e-06 9.0051582487e-07 9.6394751208e-07 1.0468651867e-06 9.8066040604e-07
          1.7205801187e-06 9.1829567845e-07 8.9244416368e-07 1.7522200957e-06 8.3079111202e-07 1.0109907353e-06
          9.2573487742e-07 8.9205430896e-07 1.8360711678e-06 1.8051451174e-06 1.712618519e-06 8.737185726e-07
          1.7008421954e-06 1.8188899902e-06 1.7802327671e-06 1.7221460646e-06 1.9394655092e-06 1.5400487379e-06
          1.7808354327e-06 1.9276794342e-06 1.8310037655e-06 1.9080409457e-06 1.7490672223e-06 1.8412947047e-06
          1.479247167e-06 1.7556199428e-06 1.8807785308e-06 1.6850488879e-06 1.0020978681e-06 1.5032640652e-06
          9.833562293e-07 8.8544636969e-07 9.3015605832e-07 9.7650744504e-07 9.5353562733e-07 1.5182735627e-06
          8.6656992592e-07 1.6669400714e-06 9.4548120123e-07 8.3733202113e-07 9.111898653e-07 8.8399485003e-07
          8.4995721786e-07 8.4897015946e-07 9.3943839555e-07 8.700265095e-07 1.0219997297e-06 1.0439043754e-06
          8.6517659626e-07 9.4637776572e-07 8.7704519523e-07 9.8444225788e-07 8.6914915597e-07 9.083066028e-07
          8.3972190344e-07 8.8054956559e-07 1.0585006509e-06 1.6265664795e-06 9.0994251817e-07 1.0598495889e-06
          1.0422107576e-06 1.0355945863e-06 9.0839876566e-07 9.3188483694e-07 8.8139125223e-07 8.3157384891e-07
          1.0477748854e-06 9.4709582335e-07 9.6475078453e-07 9.4964109079e-07 8.7224941078e-07 9.628555015e-07
          1.7171330079e-06 9.7223247144e-07 9.6427128904e-07 9.9535975776e-07 8.266152368e-07 9.8559741314e-07
          9.614866856e-07 9.258971113e-07 1.819651268e-06 1.8038144637e-06 1.6930003984e-06 1.8823816769e-06
          1.6380861458e-06 1.8316784634e-06 1.0346962565e-06 9.3630941757e-07 9.8461771143e-07 1.0072269249e-06
          9.5143328332e-07 9.2495157132e-07 1.5694843176e-06 9.205120171e-07 9.2437742893e-07 8.8726215189e-07
          9.6035915012e-07 8.492929133e-07 9.2764391976e-07 8.7383508136e-07 8.5172569302e-07 8.1280156779e-07
          8.9527931374e-07 1.4856472018e-06 8.3618014418e-07 8.6208596734e-07 8.0103607206e-07 8.1655020827e-07
          8.7786118102e-07 9.6527460364e-07 8.8482887638e-07 8.3602170052e-07 1.6720618853e-06 8.3181193767e-07
          8.0400126959e-07 1.0370844263e-06 1.003584864e-06 1.6460687414e-06 8.9335437958e-07 1.0288396771e-06
          8.5303373304e-07 9.0852080518e-07 9.5577182182e-07 8.8177178929e-07 9.2087764451e-07 1.0160869219e-06
          1.8436284089e-06 8.1771621879e-07 8.8659134446e-07 8.8519569672e-07 1.8927488446e-06 1.796883069e-06
          8.9682531327e-07 9.8834287924e-07 1.7870618397e-06 9.0456027283e-07 1.0185097177e-06 1.0487272147e-06
          8.3860890145e-07 9.2727320037e-07 1.0292975244e-06 1.7797994361e-06 9.3663853014e-07 9.4694801164e-07
          1.0011514691e-06 1.6897104742e-06 1.0179162458e-06 8.2709825751e-07 9.4651923658e-07 8.9651588921e-07
          1.0522202039e-06 1.0469652882e-06 1.0591550885e-06 1.607851904e-06 7.957777685e-07 9.9221482072e-07
          9.920639012e-07 1.0344197845e-06 1.0373520926e-06 1.5936961219e-06 1.8984148529e-06 8.5999567786e-07
          1.0436738542e-06 1.0513666522e-06 8.7101414134e-07 9.4277483504e-07 1.0156629768e-06 8.568586865e-07
          9.7688991919e-07 9.7104580305e-07 1.6160646847e-06 9.2211069788e-07 8.4282416414e-07 1.0095451078e-06
          1.0050139963e-06 9.6773803649e-07 9.2947204154e-07 1.0490432438e-06 1.9244216064e-06 1.0544015896e-06
          8.2440475682e-07 9.1004445305e-07 1.0041257422e-06 9.8102296232e-07 9.4621707419e-07 9.7533526042e-07
          1.8399630324e-06 9.9133915187e-07 1.0161080762e-06 8.9830267752e-07 9.5039973099e-07 1.0146004866e-06
          1.0301103514e-06 9.4142058588e-07 9.2105903904e-07 9.1980981332e-07 1.7753920098e-06 1.0218575659e-06
          9.1523362879e-07 9.9855632659e-07 1.0281954622e-06 9.5517077894e-07 9.6908940662e-07 9.8694795087e-07
          1.0279502298e-06 1.5635162208e-06 1.0177750874e-06 9.1289996307e-07 9.1119770485e-07 9.7877053248e-07
          9.4655882934e-07 9.8468162036e-07 1.0084914206e-06 9.6900304053e-07 9.6009137294e-07 9.3770142845e-07
          9.0392784209e-07 9.3033664485e-07 8.7440595702e-07 8.9681780398e-07 8.9340169466e-07 9.1233972579e-07
          8.9860472449e-07 8.3224665844e-07 9.1244327057e-07 9.1083001554e-07 9.3198287866e-07 1.0014938185e-06
          1.5472050191e-06 9.1673579921e-07 8.3183434957e-07 9.0926918019e-07 9.019810886e-07 8.1032057244e-07
          8.4532764596e-07 9.2850124738e-07 8.4341350068e-07 8.6599247459e-07 8.4569784979e-07 8.6651362374e-07
          8.9809982907e-07 7.9255776159e-07 1.027282831e-06 9.4186937358e-07 9.5299519726e-07 8.6508485487e-07
          1.6276656651e-06 1.0340981088e-06 1.0341386247e-06 1.0372916078e-06 1.6353890085e-06 1.0024326601e-06
          9.7849195705e-07 1.0559329067e-06 9.146619865e-07 8.3652034742e-07 9.5803160662e-07 1.0061198162e-06
          9.9933537606e-07 9.9932248169e-07 1.0014623789e-06 1.0290846455e-06 9.1069263671e-07 9.8684928915e-07
          1.7677597026e-06 1.6278216197e-06 8.2471990167e-07 1.6980332435e-06 9.1268124551e-07 1.0365833985e-06
          9.8632693533e-07 1.0261039571e-06 1.0013722519e-06 9.5594761258e-07 9.8948924258e-07 9.7724771366e-07
          1.0043513015e-06 1.6973733199e-06 9.3208224849e-07 1.054450529e-06 8.8815690139e-07 9.9477797766e-07
          1.0043568487e-06 9.791405612e-07 1.0087911283e-06 9.5215526861e-07 8.4694558821e-07 8.4946043811e-07
          1.6426779556e-06 1.0203501599e-06 1.0178487256e-06 9.1250150878e-07 1.0348496808e-06 8.4926698372e-07
          1.009897396e-06 9.3197368804e-07 1.8180092728e-06 1.7723177167e-06 8.7929387978e-07 8.3264672605e-07
          1.8658947706e-06 9.9574619332e-07 9.311260312e-07 8.7521274611e-07 8.6827919212e-07 8.9514307757e-07
          1.0387842582e-06 1.8692855411e-06 1.9451938613e-06 1.7746670138e-06 1.0291824189e-06 1.0343037802e-06
          8.1602098547e-07 9.1221968868e-07 9.0223334785e-07 1.7193222431e-06 1.752638385e-06 8.6612518104e-07
          8.7766717037e-07 8.9196664599e-07 8.8201953706e-07 1.0100290281e-06 1.0363523873e-06 9.8912077615e-07
          1.0526384395e-06 8.3462564461e-07 9.2611218639e-07 8.9978575914e-07 8.958655994e-07 8.2499035174e-07
          9.99397083e-07 8.881480915e-07 9.1896313729e-07 8.2996648041e-07 8.554279418e-07 9.7957452621e-07
          9.0202707526e-07 1.025674608e-06 9.9958537858e-07 1.0156193369e-06 9.850654838e-07 1.0595947066e-06
          9.5178871586e-07 1.0006481192e-06 1.8769299391e-06 1.6440523316e-06 1.6659104934e-06 1.0609003218e-06
          9.566469943e-07 1.061202556e-06 9.0256542727e-07 9.7129912486e-07 9.6680031846e-07 8.3660490592e-07
          1.0534548726e-06 1.0429684703e-06 9.5972606457e-07 1.7502526787e-06 9.8541772306e-07 1.0195661858e-06
          1.006670442e-06 9.2103895032e-07 8.7996108933e-07 1.8213378031e-06 8.2837861585e-07 8.6403852448e-07
          1.0544682904e-06 9.920889595e-07 9.9285618123e-07 9.4344340859e-07 8.5939639068e-07 8.5367612108e-07
          9.1820230681e-07 1.6760082387e-06 8.8798658861e-07 1.5757666869e-06 1.0275265068e-06 8.174501156e-07
          9.6885501107e-07 1.0338304702e-06 8.3184077547e-07 1.0384669249e-06 1.033473987e-06 1.695126851e-06
          9.0427011237e-07 9.3141535018e-07 9.6373826875e-07 1.9298422064e-06 1.0006687492e-06 9.5926655214e-07
          9.0235668274e-07 9.953431363e-07 8.7085536369e-07 1.0356678444e-06 8.585774384e-07 8.8361601727e-07
          8.4563826209e-07 8.8425874132e-07 8.5752993182e-07 8.5348963436e-07 9.9509763375e-07 8.8165822469e-07