<?xml version="1.0"?>
<VTKFile type="UnstructuredGrid" version="0.1" byte_order="LittleEndian" header_type="UInt32" compressor="vtkZLibDataCompressor">
  <UnstructuredGrid>
    <Piece NumberOfPoints="1589" NumberOfCells="1589">
      <PointData>
        <DataArray type="Int32" Name="id" format="ascii" RangeMin="1" RangeMax="1589">
          792 477 298 1166 133 1051
          791 624 668 19 991 887
          623 206 938 793 529 308
          1167 936 605 50 59 134
          625 385 1380 1114 531 244
          937 1434 626 1047 190 766
          666 343 1168 1050 1113 989
          406 589 669 745 123 845
          241 484 174 990 794 318
          550 49 457 888 97 495
          846 42 324 15 44 22
          131 118 474 3 1048 264
          196 1295 1296 1297 1298 1299
          1300 1378 1379 1430 1432 1433
          1460 530 1488 1490 1541 1574
          1002 1179 203 75 459 847
          844 886 40 276 460 992
          1053 592 748 1052 93 369
          593 430 993 386 994 842
          1170 245 408 1115 627 1226
          1 939 594 671 749 461
          78 889 266 795 407 1054
          890 150 117 628 1055 532
          175 1057 672 54 362 629
          497 797 675 892 711 24
          475 256 798 796 370 670
          891 1056 595 109 286 533
          996 940 225 7 1118 257
          1234 389 673 387 215 995
          674 363 1172 388 1058 561
          207 1119 1109 106 676 1059
          1227 800 1116 1171 124 119
          799 634 677 433 434 597
          371 141 1173 62 534 1229
          1117 562 1122 1120 895 633
          176 432 1121 501 998 893
          941 999 246 848 373 849
          329 596 498 894 535 1000
          258 435 1174 630 20 84
          750 997 267 1060 1175 713
          499 805 804 500 712 372
          1228 802 310 803 632 1062
          1001 1177 898 1176 801 154
          1235 502 1125 208 598 850
          806 478 1061 901 504 1123
          631 1124 436 751 198 678
          220 309 896 536 897 752
          374 188 899 277 161 1126
          462 807 166 1230 344 808
          503 942 1233 1231 61 390
          900 1063 299 1178 679 137
          1232 311 680 1301 1302 1303
          1304 1305 1306 1307 1308 1309
          1310 1311 1312 1313 1372 1381
          1382 1383 1384 1385 1386 1387
          1388 1389 1390 1391 1392 1393
          1169 1431 1435 1436 1437 1438
          1439 1440 1441 1442 1484 1492
          1493 1494 1495 1496 1497 1498
          1499 1489 1491 1542 1543 1544
          1545 1546 1547 1548 1549 1550
          1551 1552 313 1245 507 943
          1180 851 809 209 121 635
          636 753 1003 1247 177 391
          268 1181 946 32 505 599
          312 945 944 1236 682 51
          754 537 479 506 1005 411
          563 1248 1065 1004 811 1064
          681 1066 77 1127 947 810
          1006 601 275 538 813 1069
          325 746 755 226 1067 330
          812 85 409 948 1182 600
          463 60 148 314 1237 508
          235 714 105 540 1238 410
          315 1068 1239 756 186 300
          852 539 81 167 1110 1070
          1007 221 950 853 345 854
          541 437 949 547 151 92
          1246 565 67 375 903 907
          227 904 18 1165 1224 57
          759 438 542 902 1240 412
          1071 602 509 824 569 192
          160 216 129 145 135 1072
          637 1129 1128 856 814 1074
          364 82 683 228 1241 905
          716 718 1073 715 855 14
          26 283 883 1244 717 346
          951 464 113 857 480 1562
          393 89 1243 288 269 1008
          764 906 1190 458 348 543
          12 690 1314 1315 1316 1317
          1318 1319 1502 1321 1322 1323
          1324 1373 1394 1395 1396 1397
          1398 1399 1242 1401 1404 1443
          1444 1445 1446 1447 1448 1449
          347 1485 1500 1501 1512 1538
          1553 1554 1555 1556 1557 1558
          1559 1561 859 908 544 1009
          909 566 511 111 37 761
          1130 317 229 719 316 210
          953 510 860 911 858 1077
          546 247 34 910 816 638
          366 1076 1075 413 222 1010
          545 90 270 1457 640 481
          242 365 862 567 513 1184
          1513 912 955 1250 956 367
          350 1320 1260 168 439 1185
          641 351 603 762 79 818
          1013 392 1186 187 1249 199
          101 1511 817 1079 236 1011
          643 604 331 1251 1012 1080
          1261 514 157 515 2 126
          259 1082 217 142 69 1187
          1402 1014 349 649 278 332
          568 1112 564 230 863 1083
          35 46 560 642 289 864
          394 684 644 1131 271 958
          1252 959 1081 115 1111 622
          155 757 237 149 758 517
          686 822 496 934 86 440
          819 685 1188 1253 960 1259
          483 820 414 287 1085 72
          1133 416 821 482 720 415
          1132 200 721 1254 1084 1256
          182 763 1191 1015 914 765
          691 913 352 1262 961 39
          1255 441 865 1016 645 1189
          136 333 13 384 442 301
          353 1257 687 647 516 590
          48 120 1263 688 23 158
          1405 1258 181 465 204 646
          189 1086 1135 866 211 549
          689 1017 96 341 30 571
          648 1137 99 1136 95 548
          823 962 570 710 1456 1458
          354 304 1325 1326 1327 1328
          1329 1330 1331 1332 1333 1334
          1335 760 1374 1400 1403 1450
          1451 1452 1453 1454 1455 1134
          1486 1503 1504 1505 1506 1507
          1508 1509 1510 1539 1564 1565
          1566 1567 1568 1569 1570 1571
          1572 952 1563 1560 279 1018
          1265 1264 1192 127 867 789
          43 723 418 466 572 692
          1138 56 417 110 218 355
          1139 395 405 73 476 38
          573 1461 915 722 1193 1140
          868 767 6 1019 1020 650
          280 33 825 869 574 223
          575 1267 965 248 179 47
          368 1266 963 964 41 146
          747 305 159 377 87 91
          17 173 88 265 935 169
          116 306 58 197 243 102
          884 1294 1336 1337 1338 1375
          1406 1407 1408 1409 1459 485
          1487 1514 1573 518 107 1194
          606 724 396 238 916 11
          1141 870 357 1087 693 486
          1021 1142 918 607 290 917
          1143 1195 1088 871 576 1196
          966 334 1144 419 1145 1410
          843 1022 1089 162 1023 1525
          919 1090 420 487 694 768
          191 249 651 608 872 103
          726 138 826 827 1268 212
          1091 770 489 272 551 1517
          467 772 319 45 284 130
          1049 10 36 152 1339 1340
          1341 1342 1462 1463 1464 1465
          1466 1470 1515 1516 1575 1576
          1577 1578 1583 185 920 742
          1281 285 1024 398 1093 695
          725 519 1279 250 443 652
          1197 224 356 790 696 1025
          577 397 1094 609 1269 25
          1026 444 828 967 1198 55
          612 873 335 921 968 610
          163 1270 488 80 147 874
          468 1271 260 611 922 74
          697 988 193 727 923 1096
          1146 378 1027 1028 1147 1148
          5 552 422 1280 1272 578
          1095 423 1029 730 445 1199
          291 969 183 1149 326 320
          4 379 1097 164 108 654
          1151 1203 261 1200 424 1273
          273 653 490 446 184 1201
          591 302 970 520 613 579
          773 132 829 971 700 831
          728 140 614 972 1030 1274
          777 1150 830 231 1275 832
          775 774 1152 342 9 293
          924 336 1153 448 213 729
          76 778 52 447 698 1276
          731 491 1204 1277 294 779
          470 292 1278 699 521 925
          776 973 833 139 1202 195
          492 1205 469 780 1343 1344
          1345 1346 1347 1348 1349 1350
          1376 1411 1412 1413 1414 1415
          1416 66 1467 1468 1469 1473
          1471 1472 1518 1519 1520 1521
          1522 1523 1524 1582 769 771
          1540 1579 1580 1581 1092 1206
          449 781 743 1209 701 1098
          450 21 1371 376 104 1183
          1099 251 734 125 784 709
          875 1154 471 64 1207 429
          1031 65 1283 1282 783 782
          1208 733 29 639 122 656
          974 581 68 281 1284 527
          1210 321 580 667 399 876
          702 262 736 170 239 421
          327 156 975 1211 1212 553
          554 1155 1100 380 1287 657
          400 735 282 451 1285 381
          1286 926 737 877 358 328
          658 1032 1288 703 834 232
          452 927 472 1289 295 878
          1213 1225 28 219 523 582
          1033 979 976 980 738 522
          977 8 929 615 785 1216
          978 338 661 555 583 1214
          178 94 205 705 659 401
          1215 1217 1101 337 382 63
          1037 83 53 255 1038 556
          836 253 618 1036 1290 704
          1039 835 144 114 928 1034
          402 786 454 404 1157 1158
          383 1102 453 1035 359 1103
          983 665 981 660 425 201
          584 234 837 263 617 1291
          1156 194 274 930 1292 663
          839 664 153 31 431 879
          252 585 982 70 1219 787
          403 455 233 1161 1040 931
          473 1041 1218 426 165 172
          706 662 741 1293 708 1222
          27 360 1104 619 1159 171
          707 1162 427 616 296 558
          739 984 1044 240 214 1106
          71 428 361 528 557 100
          1105 586 740 303 1220 788
          1160 838 744 840 881 1223
          112 1221 525 588 98 985
          180 880 885 128 1042 16
          493 621 339 143 932 323
          1043 1107 732 933 1045 1046
          254 559 322 620 882 841
          524 340 987 1163 526 307
          587 986 1108 297 494 202
          456 1164 815 957 1351 1352
          1353 1354 1355 1356 1357 1358
          1359 1360 1361 1362 1363 1364
          1365 1366 1367 1368 1369 1370
          1377 1417 1418 1419 1420 1421
          1422 1423 1424 1425 1426 1427
          1428 1429 1078 1474 1475 1476
          1477 1478 1479 1480 1481 1482
          1483 861 1526 1527 1528 1529
          1530 1531 1532 1533 1534 1535
          1536 1537 954 512 1584 1585
          1586 1587 1588 1589 655
        </DataArray>
        <DataArray type="Int32" Name="type" format="ascii" RangeMin="1" RangeMax="2">
          2 2 2 2 2 2
          2 2 2 1 2 2
          2 2 2 2 2 2
          2 2 2 1 1 1
          2 2 2 2 2 2
          2 2 2 1 2 2
          1 2 2 2 2 2
          2 1 2 1 1 2
          1 2 2 2 2 2
          2 1 1 2 1 1
          2 1 1 1 1 1
          1 1 1 1 1 1
          1 2 2 2 2 2
          2 2 2 1 2 2
          2 2 2 2 2 2
          2 2 1 2 2 2
          2 2 1 2 2 2
          2 2 2 2 1 2
          2 1 2 2 2 1
          2 2 2 2 2 2
          1 2 2 2 2 2
          2 2 2 2 2 2
          2 1 1 2 2 2
          2 2 2 1 1 2
          2 2 2 2 2 1
          1 2 2 2 2 2
          2 2 2 2 2 2
          2 2 2 1 2 2
          2 2 2 2 1 2
          2 1 2 2 2 2
          2 2 1 2 2 2
          2 2 2 2 2 1
          2 2 2 2 2 2
          2 2 2 2 2 2
          2 2 2 2 2 2
          2 2 2 2 2 2
          2 2 2 2 2 2
          2 2 2 2 2 2
          2 2 2 2 1 1
          2 2 2 2 2 2
          2 2 2 2 2 2
          2 2 2 2 2 2
          2 2 2 2 2 2
          2 2 2 2 2 2
          2 2 2 2 2 2
          2 2 2 2 2 2
          2 2 2 2 2 2
          2 2 2 2 2 2
          2 2 1 2 2 2
          2 2 2 2 2 2
          2 2 2 2 2 2
          2 2 2 2 2 2
          2 2 2 2 2 2
          2 2 2 2 1 2
          2 2 2 2 2 2
          2 2 2 2 2 2
          2 1 2 2 2 2
          2 2 2 2 1 2
          2 2 2 2 2 2
          2 2 2 2 2 2
          2 2 2 2 2 2
          2 2 2 2 2 2
          2 2 2 2 2 2
          2 2 2 2 2 2
          2 2 2 1 2 2
          2 2 2 2 2 1
          2 2 2 2 2 2
          2 2 2 2 2 2
          2 2 2 2 2 2
          2 2 1 2 2 2
          1 1 2 2 2 2
          2 1 2 2 2 2
          2 1 2 2 2 2
          2 2 2 2 2 2
          2 2 2 2 1 2
          2 2 1 1 1 2
          2 2 2 2 2 2
          2 2 2 2 1 1
          2 2 2 2 2 2
          2 2 1 1 1 1
          2 2 2 2 2 2
          2 2 2 2 2 1
          1 1 1 1 2 2
          2 2 2 2 2 2
          1 1 2 2 2 2
          2 2 2 2 2 1
          1 1 1 2 2 2
          2 2 2 2 2 2
          2 1 2 2 2 2
          2 2 2 1 2 2
          1 2 2 2 2 2
          2 2 2 2 2 2
          2 1 2 2 2 2
          2 2 2 2 2 2
          2 2 2 2 2 2
          2 1 2 2 2 1
          2 2 2 2 2 2
          2 2 2 2 2 2
          2 2 2 2 1 2
          2 2 2 2 2 2
          2 2 2 2 2 2
          2 2 1 2 2 2
          1 2 2 2 2 2
          2 1 2 2 2 2
          1 1 2 2 2 2
          2 2 2 2 2 1
          2 2 2 1 2 2
          2 2 2 2 2 2
          2 2 2 1 2 2
          1 2 2 2 2 2
          2 2 2 2 2 2
          2 2 2 2 1 1
          2 2 1 2 2 2
          2 2 2 2 2 2
          2 1 2 2 2 2
          1 1 1 2 2 2
          2 2 2 2 2 2
          2 2 2 1 1 1
          2 2 2 2 2 2
          2 2 1 1 1 2
          2 2 2 2 2 2
          2 2 2 2 2 2
          2 2 2 2 2 2
          2 2 2 2 2 2
          2 2 2 2 2 2
          2 2 2 2 2 1
          2 2 2 2 2 2
          2 2 1 1 2 2
          2 2 2 2 2 1
          1 1 2 2 1 2
          2 2 2 2 1 2
          2 2 2 2 2 2
          2 2 1 1 1 2
          2 2 1 2 1 2
          2 2 2 1 2 2
          2 1 2 2 2 2
          2 2 2 2 2 2
          2 2 1 2 2 2
          2 2 2 2 2 2
          1 2 2 2 2 2
          2 2 2 1 2 2
          2 2 2 2 2 2
          2 2 2 2 2 2
          2 2 2 2 2 1
          1 2 2 2 2 2
          2 1 2 1 1 2
          2 2 1 2 1 1
          2 2 2 2 2 2
          2 2 1 2 2 2
          2 1 2 2 2 2
          2 2 2 2 1 1
          1 2 2 2 1 1
          1 1 2 2 1 1
          1 1 1 1 1 1
          1 1 1 1 1 1
          1 1 2 2 2 1
          2 2 2 2 2 2
          1 2 2 2 2 2
          2 2 2 2 2 1
          2 2 2 2 2 2
          2 2 2 2 2 2
          2 2 2 2 2 2
          2 2 2 2 2 2
          1 2 2 2 2 2
          2 2 2 2 2 2
          2 2 2 2 2 1
          2 2 2 2 2 2
          2 2 2 2 2 2
          2 2 2 1 1 1
          1 1 1 1 2 2
          2 2 2 2 2 2
          2 2 2 2 2 2
          2 2 2 2 2 2
          2 1 2 2 2 2
          2 2 2 2 2 2
          2 1 2 1 2 2
          2 2 2 2 2 1
          2 2 2 2 2 1
          2 2 2 2 2 2
          2 2 2 1 1 2
          2 2 2 2 2 2
          2 1 1 2 2 2
          2 2 2 2 2 2
          1 2 2 2 2 2
          2 2 2 2 2 2
          2 2 2 2 1 2
          1 2 2 2 2 2
          2 2 2 2 2 2
          2 2 2 2 2 2
          1 2 2 2 2 2
          2 2 2 2 2 2
          2 1 2 2 2 2
          2 2 2 2 2 2
          2 2 2 1 1 2
          2 2 2 2 2 2
          2 2 1 2 2 2
          2 2 2 2 2 2
          2 2 2 2 2 2
          2 2 2 2 2 2
          2 2 2 2 2 2
          2 2 2 2 2 2
          1 2 2 2 2 2
          2 2 2 2 2 2
          2 2 2 2 2 2
          2 2 2 2 2 2
          1 2 2 2 2 2
          2 2 2 2 2 2
          2 1 2 2 1 2
          2 2 2 2 2 2
          2 2 2 2 2 2
          2 2 2 2 2 2
          2 2 1 2 2 2
          2 2 2 2 2 1
          2 2 2 1 2 2
          2 2 2 2 2 2
          1 2 2 2 2 2
          2 2 2 2 2 2
          2 2 2 2 2 2
          2 2 2 2 2 1
          2 2 2 2 2 2
          2 2 2 2 2 2
          2 1 1 1 2 2
          2 2 2 2 2 2
          2 1 2 2 2 2
          2 2 2 2 2 2
          2 1 1 2 2 2
          2 2 2 2 2 2
          2 1 1 1 2 2
          2 2 2 2 2 2
          2 2 2 2 2 2
          2 2 2 2 2 2
          2 2 2 2 2 2
          2 2 2 2 2 2
          2 2 2 2 2 2
          2 1 2 2 2 2
          2 2 1 1 1 2
          2 2 2 2 2 2
          2 2 2 2 2 2
          2 2 2 2 2 2
          2 2 2 2 2 2
          1 2 2 2 2 2
          2 2 2 2 2 2
          2 2 2 2 2 2
          2 2 2 1 2 1
          2 2 2 2 2 2
          2 2 2 2 2 2
          2 2 2 2 1 2
          2 2 1 2 2 1
          2 2 2 2 2 2
          2 2 2 2 2 2
          2 2 2 2 2 2
          2 2 2 2 2 1
          2 2 2 2 2 2
          2 2 2 2 2 2
          2 2 2 2 2 2
          2 2 2 2 2 2
          2 2 2 2 2 2
          1 2 2 2 2 2
          2 2 2 2 2 2
          2 2 2 2 2 2
          2 2 2 2 2 2
          2 2 2 2 2 2
          2 2 2 2 2 2
          2 2 2 2 2 2
          2 2 2 2 2
        </DataArray>
        <DataArray type="Float64" Name="diameter" format="ascii" RangeMin="7.8001914844e-07" RangeMax="1.9669064201e-06">
          1.0489297879e-06 8.9675382504e-07 9.4793592563e-07 8.8692019772e-07 9.6603309271e-07 9.1372857788e-07
          9.5118044012e-07 8.8698028328e-07 9.851500778e-07 1.612484683e-06 9.8660023222e-07 8.4816397018e-07
          9.2340883436e-07 8.7909330207e-07 1.0310791096e-06 8.9660779702e-07 9.1700652647e-07 8.3818590997e-07
          9.7907319113e-07 8.5468121444e-07 1.037043039e-06 1.6421350595e-06 1.715710023e-06 1.5681176799e-06
          9.8527056724e-07 1.0094270691e-06 8.5646139496e-07 9.5169161053e-07 9.857109375e-07 8.4041750621e-07
          9.7041058446e-07 8.474756185e-07 9.6169836152e-07 1.6438269969e-06 8.9378176778e-07 9.6134628806e-07
          1.6624104559e-06 1.0232272016e-06 8.8420088091e-07 9.5162539065e-07 9.4263243892e-07 1.0212434949e-06
          8.8996288707e-07 1.6196967833e-06 9.5923060278e-07 1.7131281896e-06 1.7925751909e-06 9.2248642921e-07
          1.7667078664e-06 1.0377415122e-06 9.7484761754e-07 9.6916926535e-07 8.744146478e-07 9.1488305256e-07
          9.1392060225e-07 1.766191043e-06 1.7161977844e-06 9.9907783951e-07 1.9479858668e-06 1.6958670971e-06
          1.0040933609e-06 1.8491128991e-06 1.7563774446e-06 1.6292662246e-06 1.9375465124e-06 1.6925118095e-06
          1.9377482565e-06 1.7834688073e-06 1.7874980562e-06 1.888063615e-06 1.6217271504e-06 1.7924946163e-06
          1.8695509539e-06 8.6323943312e-07 8.9518694335e-07 8.9059600654e-07 8.6011689666e-07 9.4122905902e-07
          8.8295222049e-07 9.0189530668e-07 8.3842644435e-07 1.591579113e-06 9.0074641132e-07 8.5764354906e-07
          8.547114345e-07 9.7481347357e-07 8.6336169345e-07 8.6251462314e-07 7.9387744645e-07 8.5300016487e-07
          1.0266294534e-06 9.295137485e-07 1.797906493e-06 1.0414737169e-06 8.3706697486e-07 8.9920253362e-07
          8.902846201e-07 1.0208997465e-06 1.7100757375e-06 9.132716789e-07 1.0075419194e-06 9.7112964306e-07
          9.9043750954e-07 1.0255250678e-06 9.1743077939e-07 1.0285410849e-06 1.5770608202e-06 9.4536056513e-07
          1.0232855204e-06 1.8060477125e-06 9.5030998383e-07 1.0225072946e-06 9.5594561879e-07 1.5693963464e-06
          9.2609763091e-07 9.5536579279e-07 1.0475227672e-06 9.8261824795e-07 1.0096648162e-06 8.6275628267e-07
          1.7369059548e-06 9.8246797147e-07 9.3443123885e-07 8.7004269071e-07 9.1189225881e-07 1.0190373963e-06
          9.0173404219e-07 1.0359055386e-06 1.0191606321e-06 8.8263774167e-07 9.2011926026e-07 9.6885241767e-07
          9.0439628969e-07 1.9177674579e-06 1.7756820564e-06 8.9026513227e-07 1.03697553e-06 1.0519318372e-06
          9.5393038647e-07 1.0142292037e-06 8.9203535336e-07 1.828902147e-06 1.7371802897e-06 9.7414704095e-07
          1.002026972e-06 9.0721562114e-07 9.3725948999e-07 8.8762566848e-07 9.0269913672e-07 1.6420819635e-06
          1.7049802153e-06 9.0645312974e-07 8.6106012132e-07 8.4011191592e-07 1.0111520849e-06 9.0822613656e-07
          1.0007775808e-06 9.819047731e-07 8.9628005757e-07 9.1739741104e-07 8.8775200402e-07 1.0317265053e-06
          9.2963788081e-07 9.4795321011e-07 8.9808891588e-07 1.9394394051e-06 9.4739788469e-07 1.0032336315e-06
          9.5198745059e-07 8.3945768732e-07 9.7184320558e-07 9.329287162e-07 1.8412698735e-06 9.9576856386e-07
          9.2364676657e-07 1.7489294082e-06 9.8972845275e-07 8.9139201239e-07 9.9751895684e-07 1.0463788921e-06
          1.0200203812e-06 1.0112156993e-06 1.5910697108e-06 9.6511512887e-07 8.9657290607e-07 1.0205981603e-06
          9.060180961e-07 8.9713119289e-07 9.0680065845e-07 9.1783277503e-07 9.8028168445e-07 1.5692003163e-06
          1.0319620399e-06 1.0432212511e-06 9.788812334e-07 8.5049636926e-07 9.0131251487e-07 8.1173035801e-07
          8.7926214395e-07 9.9237000706e-07 9.6924195211e-07 8.8524243387e-07 8.5862500867e-07 9.407448528e-07
          9.8181844215e-07 1.0175853675e-06 9.5961737243e-07 1.0137986646e-06 1.0477329543e-06 8.9342774098e-07
          8.763157014e-07 9.1915703809e-07 9.3734820356e-07 1.0539755955e-06 9.281354202e-07 1.0345223998e-06
          1.0357520103e-06 1.0479503599e-06 8.4759281583e-07 8.9153568221e-07 9.0253532843e-07 8.5602762195e-07
          9.8718500103e-07 8.3096743184e-07 8.7986249892e-07 1.0077437345e-06 9.5381660636e-07 9.6936140356e-07
          8.7975102018e-07 1.022953122e-06 9.3261860662e-07 1.0446659335e-06 1.8174834248e-06 1.5533048547e-06
          9.0518471877e-07 9.4675472909e-07 8.8109144958e-07 9.3135234488e-07 8.8828370882e-07 9.0877580971e-07
          9.47219658e-07 8.7819237749e-07 8.869082215e-07 9.7377783564e-07 9.189450397e-07 8.3684008059e-07
          9.0483702585e-07 1.0033748844e-06 9.0825371912e-07 8.2147226764e-07 9.9299765379e-07 1.0342919388e-06
          9.5068303548e-07 8.8708943157e-07 8.6235263166e-07 8.9800198979e-07 9.3550821538e-07 1.0134541848e-06
          9.5556478451e-07 8.0294725136e-07 9.6958464414e-07 7.8816947006e-07 1.0047993506e-06 1.0464217213e-06
          8.8014811964e-07 9.121074329e-07 8.9275848583e-07 9.9998537684e-07 8.251749422e-07 1.0038656268e-06
          9.6868528338e-07 9.041129274e-07 9.8122454659e-07 7.8881574653e-07 9.9732762425e-07 9.6899099011e-07
          8.2452511077e-07 1.0307426978e-06 9.0983707891e-07 9.3089022127e-07 1.0031957483e-06 9.6095486877e-07
          1.0220999554e-06 9.567696563e-07 9.7843312555e-07 8.9728718332e-07 9.1283094444e-07 9.5013060777e-07
          9.7835697485e-07 8.2456516062e-07 1.9300441042e-06 8.8477784742e-07 9.4519836321e-07 8.8961906751e-07
          1.0315077711e-06 9.9223892957e-07 8.6522636713e-07 8.5499609674e-07 8.9927151237e-07 8.8617821975e-07
          8.575420305e-07 9.7244031362e-07 8.4794721857e-07 9.1350643507e-07 9.7409490409e-07 9.0356943095e-07
          9.4700950529e-07 8.2167141907e-07 9.5246809979e-07 9.0578002395e-07 8.7914651696e-07 9.1371349844e-07
          9.4274181896e-07 9.1731702353e-07 9.0856340896e-07 9.345113006e-07 8.8271981219e-07 9.2572030188e-07
          9.0920390091e-07 8.9404382769e-07 8.819007428e-07 8.6127068618e-07 1.6204576516e-06 8.8188256117e-07
          8.8522790286e-07 8.5498846329e-07 8.5666806973e-07 9.1496172719e-07 9.0530502324e-07 8.9287860828e-07
          8.7314504083e-07 8.9302229222e-07 8.6753600745e-07 8.6894932291e-07 8.7366196591e-07 8.9502621734e-07
          9.7995243988e-07 1.5997013153e-06 8.3816850772e-07 8.1977210191e-07 8.1755331011e-07 8.9760527754e-07
          8.0708543519e-07 8.9946562992e-07 8.3665151383e-07 8.9752454788e-07 1.5697633203e-06 8.088852443e-07
          8.0388947566e-07 8.2013037913e-07 9.0510111084e-07 8.8741277961e-07 8.0692448759e-07 8.74073413e-07
          8.1047258893e-07 8.5727832444e-07 8.3437111591e-07 8.4342185894e-07 8.7006849814e-07 8.3252419469e-07
          8.4013130099e-07 7.8377882569e-07 8.4470629195e-07 8.5393214566e-07 8.2476938937e-07 8.8639846486e-07
          8.8058536592e-07 8.3441020094e-07 9.827753651e-07 9.5827503892e-07 1.0225441587e-06 1.0447266849e-06
          8.9344826743e-07 8.046783374e-07 9.4801660635e-07 9.6448131253e-07 7.9559103214e-07 8.3119395921e-07
          9.5203590567e-07 8.661663512e-07 1.0076939728e-06 8.6275483945e-07 8.3790707254e-07 8.7644041489e-07
          9.1698056328e-07 9.2118394712e-07 8.074604687e-07 1.8602846413e-06 9.695215308e-07 9.938841964e-07
          1.019560098e-06 1.0187436963e-06 8.1493492889e-07 9.3089532677e-07 9.5553025329e-07 1.7852249101e-06
          8.3455319281e-07 1.033230631e-06 1.0183725665e-06 9.8332561143e-07 9.8530169581e-07 9.8479888058e-07
          8.9215980838e-07 9.4357496929e-07 9.6004752969e-07 1.02526932e-06 1.0364036041e-06 1.0166262889e-06
          9.0611289901e-07 9.9069828243e-07 9.533435689e-07 9.9039697617e-07 9.7848488064e-07 8.9546731391e-07
          1.0117070123e-06 9.6587781842e-07 1.8024937945e-06 9.4940031339e-07 8.8212707524e-07 9.9033196051e-07
          1.8199248234e-06 1.5936130901e-06 8.9820175051e-07 9.2891019952e-07 1.0082608271e-06 9.9101165472e-07
          1.0431580616e-06 1.8704008493e-06 9.883464628e-07 8.7496072175e-07 8.7398670052e-07 9.6686446533e-07
          1.0108785384e-06 1.7573529734e-06 9.1901811532e-07 9.3415604713e-07 8.9873069045e-07 9.5109294486e-07
          1.0387678265e-06 8.3410797737e-07 8.7439818589e-07 9.8031283664e-07 8.9690744361e-07 8.8651140247e-07
          9.571741493e-07 9.4029241995e-07 8.8899500728e-07 9.8270618261e-07 1.6541778684e-06 1.0228121679e-06
          8.4710569934e-07 1.0393324393e-06 1.6849266815e-06 1.9281986459e-06 1.5189476824e-06 9.6668379591e-07
          1.0529039066e-06 8.5131609772e-07 9.3437116855e-07 9.0584121857e-07 1.0411979235e-06 8.6415184702e-07
          8.600722247e-07 8.8713069784e-07 8.5243406404e-07 1.0503382417e-06 1.9336842731e-06 1.7863677656e-06
          9.0089347984e-07 9.9067021087e-07 9.3037470622e-07 8.7123274671e-07 1.0052448098e-06 8.6028470687e-07
          8.4021767107e-07 1.0504213206e-06 1.9548098833e-06 1.5419378956e-06 1.6950557967e-06 1.786861241e-06
          9.3378788761e-07 8.3897286231e-07 9.9665737627e-07 1.01300606e-06 8.9691930598e-07 9.2178948723e-07
          9.5044423459e-07 8.9240010554e-07 1.0129983105e-06 8.5612621014e-07 1.0133693637e-06 1.8769757746e-06
          1.9211169635e-06 1.7927857378e-06 1.7107696341e-06 1.8901537037e-06 9.6495645251e-07 9.9118536729e-07
          9.470026256e-07 1.0075062054e-06 8.9835293247e-07 8.1550882189e-07 9.0699907053e-07 9.4134994954e-07
          1.7781017377e-06 1.5506446198e-06 9.5619102893e-07 1.0458050452e-06 9.2647835066e-07 1.0426259028e-06
          9.1246585399e-07 8.6731891793e-07 1.0274348004e-06 1.008462135e-06 8.7942522154e-07 1.5041971344e-06
          1.5663874816e-06 1.8641112076e-06 1.7250402961e-06 8.5326939279e-07 9.757831099e-07 1.0535229727e-06
          9.8613344754e-07 8.4916432643e-07 9.455502947e-07 1.0264980537e-06 1.0163142929e-06 8.3272201842e-07
          9.6932142666e-07 1.7392706696e-06 8.6777217926e-07 8.3165512958e-07 9.3248265231e-07 9.8687640819e-07
          9.5958569379e-07 9.7994102423e-07 9.6048532377e-07 1.7652928844e-06 8.90024676e-07 1.0191738626e-06
          1.5765988666e-06 9.4409572358e-07 8.3433332066e-07 9.4369911457e-07 9.0861476131e-07 8.9331990034e-07
          9.5377568405e-07 9.1275646821e-07 8.5454515751e-07 9.2259576032e-07 9.503327613e-07 8.5693523926e-07
          8.3839279704e-07 1.6282631958e-06 9.4175064827e-07 8.852671887e-07 9.0482632889e-07 8.4423491672e-07
          9.1720246889e-07 8.7367504853e-07 8.6064868053e-07 8.4780962482e-07 8.5705945403e-07 9.1967904582e-07
          9.1175621726e-07 8.4890418469e-07 8.7667656004e-07 9.1364223727e-07 8.2592434352e-07 8.8446163946e-07
          8.4718816087e-07 1.5831473123e-06 8.4947425251e-07 8.5639461219e-07 8.0376272449e-07 1.4708037658e-06
          8.8698447021e-07 8.7559791684e-07 8.4699910384e-07 7.9858459815e-07 8.0075093091e-07 8.0073004725e-07
          8.2097208472e-07 8.0253607475e-07 8.3437566533e-07 7.8945657168e-07 8.1563070799e-07 9.9552185908e-07
          1.0312511682e-06 9.8041642042e-07 1.0176727496e-06 1.0173252397e-06 1.7879920865e-06 8.878363516e-07
          9.8988356308e-07 8.4380581411e-07 9.0504636037e-07 8.6178843728e-07 1.0506676215e-06 8.8576509423e-07
          9.5206124771e-07 8.7051890769e-07 9.17809703e-07 1.0475780388e-06 8.1506289948e-07 9.8063289689e-07
          9.8172397609e-07 8.7025102249e-07 1.7673279216e-06 1.007655264e-06 8.8980496355e-07 9.2673837058e-07
          1.7937698462e-06 9.8324031823e-07 1.0192776004e-06 9.815265753e-07 9.8599459168e-07 9.3569289323e-07
          9.5894689376e-07 1.8715772834e-06 8.8952351146e-07 8.6391965026e-07 9.6067690397e-07 1.0063576097e-06
          1.8333737996e-06 1.7797185251e-06 8.8509412006e-07 9.8025584146e-07 8.3327686311e-07 8.9354402214e-07
          8.1921200852e-07 8.597770459e-07 9.7145797367e-07 8.7487472128e-07 1.0007198262e-06 1.6966439032e-06
          8.9566508279e-07 9.5025208701e-07 9.507806463e-07 1.927270303e-06 1.0185170743e-06 9.5501215404e-07
          9.4843066785e-07 9.4751322222e-07 1.0454557233e-06 1.0265514213e-06 9.5571534855e-07 9.5223387326e-07
          1.0383242504e-06 1.0371285273e-06 9.33403855e-07 1.6304431009e-06 8.5987262953e-07 8.8710412855e-07
          1.7907832592e-06 8.011240792e-07 1.03201967e-06 9.7372280109e-07 8.4038451523e-07 9.4878257992e-07
          9.5091783009e-07 1.0404050406e-06 8.0670516703e-07 8.7125322523e-07 9.1092238048e-07 1.0096215117e-06
          8.5737414065e-07 1.0084296621e-06 9.437330332e-07 9.3357613485e-07 1.6595093244e-06 1.602606272e-06
          9.3552387533e-07 1.0358097123e-06 1.7912053665e-06 9.168992937e-07 1.0509505174e-06 9.210885389e-07
          8.8919954202e-07 9.7512620733e-07 9.0579794779e-07 8.8472533457e-07 9.8801659229e-07 1.0266825912e-06
          9.3852129168e-07 1.6601847165e-06 9.0634921842e-07 1.0469648295e-06 1.0426686983e-06 9.2796325247e-07
          1.5715529821e-06 1.8709699607e-06 1.6388111163e-06 8.9569321159e-07 8.9689655629e-07 8.2102786065e-07
          9.3044831994e-07 8.9220958272e-07 9.3886732616e-07 9.2041012131e-07 9.4599526622e-07 1.0237331595e-06
          8.9084572974e-07 9.857223449e-07 1.0052024274e-06 1.5837664992e-06 1.6305451049e-06 1.7425772212e-06
          1.0524143736e-06 9.0187014851e-07 1.0180261893e-06 9.2099812164e-07 8.8489442598e-07 8.1789772497e-07
          1.0097724954e-06 8.7045809757e-07 1.6243858956e-06 1.5434606971e-06 1.6508071146e-06 1.0104649294e-06
          8.5308939196e-07 9.3227968548e-07 9.326035328e-07 8.978903514e-07 9.9212460786e-07 8.4054992459e-07
          1.0247332861e-06 1.0080352438e-06 8.8299601871e-07 8.1484432809e-07 1.0220215499e-06 9.1631635993e-07
          9.4155603557e-07 8.7726157822e-07 1.0528416542e-06 1.0474789031e-06 8.7644117e-07 9.2521933246e-07
          9.8051483013e-07 9.2167703949e-07 8.7405497556e-07 8.6333552447e-07 8.9191308515e-07 9.0752408491e-07
          1.0449744964e-06 9.581613437e-07 9.3063354069e-07 9.5599847975e-07 8.9308257006e-07 9.1702243343e-07
          9.5917580565e-07 1.0026191238e-06 1.0280965041e-06 9.6252681602e-07 9.8122043372e-07 1.9374579071e-06