<?xml version="1.0"?>
<VTKFile type="UnstructuredGrid" version="0.1" byte_order="LittleEndian" header_type="UInt32" compressor="vtkZLibDataCompressor">
  <UnstructuredGrid>
    <Piece NumberOfPoints="744" NumberOfCells="744">
      <PointData>
        <DataArray type="Int32" Name="id" format="ascii" RangeMin="1" RangeMax="744">
          668 298 477 529 133 623
          206 624 530 459 19 59
          134 531 244 385 308 625
          626 406 669 50 666 174
          343 592 589 123 484 241
          485 318 49 457 97 495
          42 324 22 131 15 44
          118 474 3 264 196 75
          203 460 40 276 93 430
          245 386 1 593 627 369
          266 594 407 408 256 78
          671 629 150 117 461 370
          670 628 175 672 54 362
          497 475 532 674 595 286
          109 533 675 711 24 7
          257 387 215 673 124 363
          534 225 106 389 633 119
          433 434 371 388 207 62
          561 373 676 176 432 634
          677 141 597 499 246 372
          329 596 562 535 435 20
          84 267 713 501 154 712
          498 310 598 258 630 436
          309 220 500 502 208 374
          277 632 161 631 198 344
          536 61 478 504 166 678
          299 503 188 137 462 680
          679 390 311 313 121 507
          636 312 209 635 32 505
          537 506 411 391 268 682
          77 51 599 479 177 681
          226 563 330 600 601 275
          148 314 410 85 409 508
          538 325 60 235 714 463
          105 690 315 186 540 81
          221 539 67 300 437 227
          151 92 167 129 565 438
          345 541 375 18 57 542
          637 155 509 192 14 160
          216 364 145 135 464 412
          715 602 442 301 569 82
          716 480 346 718 393 26
          283 683 717 269 228 571
          113 89 12 288 348 543
          458 511 544 566 316 510
          37 317 719 376 210 481
          111 638 229 247 34 270
          366 641 222 413 513 90
          350 512 439 365 567 545
          546 367 640 168 142 603
          331 79 392 187 199 101
          642 349 236 351 643 604
          514 2 259 217 649 684
          332 157 568 126 564 686
          35 46 560 69 440 394
          644 278 483 515 115 622
          287 496 86 482 720 685
          289 271 182 414 237 416
          72 149 415 441 200 721
          645 333 136 691 547 687
          517 352 39 48 120 646
          13 384 353 516 181 647
          590 23 158 688 211 465
          204 189 549 689 96 341
          30 648 548 570 99 95
          354 230 710 347 304 242
          605 127 279 43 692 418
          466 110 723 56 417 572
          218 355 190 73 405 476
          38 573 722 280 395 6
          223 574 33 575 377 650
          248 179 47 368 159 550
          146 305 41 87 116 91
          17 173 88 265 169 102
          306 197 243 58 518 107
          238 606 607 357 396 724
          576 486 693 356 725 11
          290 162 334 419 420 487
          191 608 249 66 694 726
          651 488 103 489 272 138
          319 551 467 212 45 284
          130 10 152 36 695 185
          652 285 398 250 397 655
          25 519 577 443 609 696
          335 163 610 55 74 444
          239 80 147 291 727 193
          468 730 378 612 260 611
          5 552 422 697 326 320
          108 578 423 653 446 183
          140 654 445 424 273 728
          591 4 379 164 613 579
          261 132 490 700 184 342
          302 520 231 729 292 447
          698 9 614 336 448 293
          76 213 294 52 731 491
          492 470 195 699 521 469
          139 224 701 449 743 742
          21 64 471 429 104 125
          450 580 639 656 65 251
          734 68 281 709 321 733
          29 667 581 527 156 122
          399 702 262 736 170 735
          451 327 553 380 657 421
          282 381 737 232 554 472
          328 658 400 452 358 522
          703 295 28 219 555 178
          8 401 523 582 337 583
          738 94 83 205 615 114
          382 338 661 53 255 705
          556 659 253 425 704 234
          63 274 454 618 453 359
          660 233 201 144 584 263
          402 617 426 165 706 404
          663 664 153 31 431 252
          383 70 585 403 455 665
          616 296 558 194 172 240
          708 741 557 27 360 619
          171 427 473 739 214 662
          71 528 586 100 740 707
          303 322 112 361 428 98
          180 254 128 16 620 744
          339 524 621 323 143 525
          526 588 587 559 493 494
          340 732 307 297 456 202
        </DataArray>
        <DataArray type="Int32" Name="type" format="ascii" RangeMin="1" RangeMax="2">
          2 2 2 2 2 2
          2 2 2 2 1 1
          1 2 2 2 2 2
          2 2 2 1 1 2
          2 2 1 1 2 1
          2 2 1 1 1 1
          1 1 1 1 1 1
          1 1 1 1 1 2
          1 2 1 2 1 1
          2 2 1 2 2 2
          2 2 2 2 2 2
          2 2 1 1 2 2
          2 2 2 2 1 1
          2 1 2 2 2 2
          2 2 2 2 1 1
          2 2 1 2 2 1
          2 2 2 2 2 1
          2 2 2 2 2 2
          2 2 2 2 2 2
          2 2 2 2 2 2
          2 2 2 2 2 1
          1 2 2 2 2 2
          2 2 2 2 2 2
          2 2 2 2 2 2
          2 2 2 2 2 2
          2 2 2 2 1 2
          2 2 2 2 2 2
          2 2 2 2 2 2
          2 2 2 2 1 2
          2 2 2 2 2 2
          2 1 2 2 2 2
          2 2 2 2 2 1
          2 2 2 1 2 2
          2 1 1 2 2 2
          2 2 2 1 2 1
          2 2 2 2 2 2
          1 1 1 1 2 2
          2 2 2 1 1 2
          2 2 2 1 1 1
          1 1 1 2 2 2
          2 2 2 2 2 1
          2 2 2 2 2 1
          1 2 2 2 2 2
          2 1 1 2 2 2
          1 2 2 2 2 2
          1 2 2 2 2 2
          2 2 2 2 1 2
          1 2 2 2 2 1
          2 2 2 1 2 2
          2 1 2 1 2 2
          2 2 2 1 2 1
          2 2 2 2 2 2
          2 1 2 1 2 2
          2 2 2 1 2 2
          1 1 1 2 2 2
          2 2 2 2 1 1
          2 1 1 2 2 2
          2 2 2 2 2 2
          2 2 2 2 2 2
          2 2 2 2 2 2
          2 2 1 1 1 2
          1 1 2 2 2 2
          1 1 2 2 2 2
          1 2 2 2 1 1
          1 2 2 2 1 1
          2 2 1 2 1 1
          2 2 2 1 2 2
          2 1 2 1 2 2
          1 2 2 2 1 1
          1 2 2 2 2 1
          2 2 1 2 2 2
          2 1 1 1 2 2
          1 1 1 1 1 1
          1 1 1 1 1 1
          1 1 1 1 2 2
          2 2 2 2 2 2
          2 2 2 2 2 1
          2 2 2 2 2 2
          2 2 2 2 2 2
          2 2 1 2 2 2
          2 2 2 2 1 1
          1 1 1 1 2 2
          2 1 2 2 2 2
          1 2 2 2 2 2
          2 2 2 1 2 2
          2 1 1 2 2 1
          2 2 2 2 2 2
          1 2 2 2 1 2
          2 2 2 2 2 2
          1 2 2 2 2 2
          1 1 2 2 2 2
          2 2 2 2 2 1
          2 2 2 2 2 2
          2 1 2 2 2 2
          2 2 2 1 2 2
          2 2 2 2 2 2
          2 1 2 2 2 2
          1 2 2 2 1 2
          2 2 2 2 2 2
          2 2 2 2 2 2
          1 1 2 1 2 2
          2 2 2 2 2 2
          2 1 2 2 2 2
          2 2 2 2 2 2
          1 2 2 2 2 2
          2 2 1 1 2 2
          1 2 2 2 2 2
          2 1 1 1 2 2
          2 2 2 1 1 2
          2 2 2 2 2 2
          2 2 2 2 2 2
          2 2 2 2 2 2
          2 2 2 2 2 2
          2 2 1 1 1 2
          2 2 2 2 2 2
          2 2 2 1 2 2
          2 2 2 1 2 2
          2 2 2 2 2 2
          2 1 2 1 2 2
          2 2 2 2 2 1
          2 2 2 1 2 2
          2 2 2 2 2 2
          2 2 2 2 2 2
          2 2 1 2 2 2
        </DataArray>
        <DataArray type="Float64" Name="diameter" format="ascii" RangeMin="7.9681458576e-07" RangeMax="1.9688903458e-06">
          8.7219031875e-07 9.4525746272e-07 1.0290903447e-06 1.0180743818e-06 8.8191253049e-07 8.4321054618e-07
          1.0350653436e-06 8.6882454512e-07 9.3191429707e-07 9.6775195264e-07 1.9089056304e-06 1.5964260667e-06
          1.8521988588e-06 9.7277726942e-07 9.5167956633e-07 9.478521974e-07 1.0072650702e-06 8.7082369188e-07
          8.8482822977e-07 1.0638000744e-06 8.8264023628e-07 1.9676106171e-06 1.5468321381e-06 9.2760041203e-07
          9.1870804119e-07 9.2809709384e-07 1.5070881048e-06 1.6679472369e-06 9.9436937628e-07 1.6438783193e-06
          1.0382851526e-06 9.8053743949e-07 1.6433973994e-06 1.5968799235e-06 1.812553034e-06 1.5779626913e-06
          1.7205541502e-06 1.634266088e-06 1.574840693e-06 1.8030271727e-06 1.9056216424e-06 1.8028394537e-06
          1.6594739529e-06 1.6632230639e-06 1.75679683e-06 1.6678722112e-06 1.7395712448e-06 9.1302316882e-07
          1.6729078738e-06 1.0013091312e-06 1.5911835158e-06 9.0682011928e-07 1.8445612048e-06 1.680483075e-06
          9.2415384486e-07 9.4677152775e-07 1.9429932916e-06 9.382810815e-07 9.3266676207e-07 8.6026928541e-07
          9.506810066e-07 8.82990641e-07 9.0438885922e-07 1.0276417731e-06 1.0523812247e-06 8.1421633245e-07
          8.3215136142e-07 9.1258168988e-07 1.7844355323e-06 1.6522285638e-06 1.0214217476e-06 9.7200331251e-07
          9.2719881665e-07 8.5667025732e-07 9.1890719254e-07 8.3015797863e-07 1.7017485666e-06 1.6164036293e-06
          9.8911913249e-07 1.5864422293e-06 9.7522735664e-07 8.7411096626e-07 9.1111775624e-07 8.843982918e-07
          1.0235568111e-06 9.9109914667e-07 9.0938426423e-07 8.2616250668e-07 1.895624901e-06 1.804600766e-06
          1.0229397102e-06 8.7292020953e-07 1.7132564228e-06 8.9304389952e-07 9.3848178235e-07 1.6273358894e-06
          9.4824979324e-07 8.8925788165e-07 9.0297075158e-07 8.2826476088e-07 9.1277316804e-07 1.8576643326e-06
          1.0160464302e-06 8.3877487222e-07 8.4839494953e-07 8.497562906e-07 9.6580626929e-07 8.942506375e-07
          9.3009209605e-07 8.786709004e-07 9.0494519603e-07 8.4805175983e-07 8.789883813e-07 9.3755168443e-07
          9.0047805145e-07 8.8680596104e-07 9.3751380836e-07 9.3955205675e-07 9.8440702226e-07 1.0111482869e-06
          9.9386818806e-07 9.7414252818e-07 9.7544753941e-07 9.0521357736e-07 1.0233145189e-06 1.691123719e-06
          1.8611740104e-06 1.051705187e-06 8.4139808119e-07 1.0290039028e-06 9.1409439362e-07 8.5487967917e-07
          1.0203375841e-06 1.0296069201e-06 9.3258061083e-07 8.3729152726e-07 9.4600059442e-07 1.056772168e-06
          1.0337460682e-06 1.0349576491e-06 9.6915362234e-07 9.8481098194e-07 1.0224743221e-06 9.0839769931e-07
          9.001090869e-07 8.9568208172e-07 9.2324631059e-07 8.7823445564e-07 9.6890388766e-07 8.6052985527e-07
          8.9761163738e-07 1.0063160862e-06 1.0563145617e-06 1.018416231e-06 1.7958586426e-06 9.1195043024e-07
          1.0251748971e-06 9.5770324695e-07 8.8375705051e-07 9.8132926114e-07 9.8742154645e-07 8.966686077e-07
          8.6750591711e-07 8.6451779035e-07 9.8871902908e-07 9.5417452466e-07 1.0433016508e-06 1.0216887988e-06
          8.4380126275e-07 9.9354211068e-07 9.5722280162e-07 8.370735911e-07 1.7309492094e-06 1.0536394155e-06
          9.648594478e-07 9.3628887226e-07 9.4554763839e-07 8.3993951769e-07 8.6914671464e-07 8.8250741711e-07
          9.6371731016e-07 1.661107975e-06 9.3048774047e-07 1.0283681616e-06 1.0183400083e-06 9.0741230738e-07
          9.0335454929e-07 9.6440509611e-07 9.1775791451e-07 9.2080414809e-07 9.3049812879e-07 1.6771762431e-06
          9.0810559034e-07 1.0363898556e-06 1.0451567657e-06 1.7403620798e-06 9.0713267919e-07 9.4751275047e-07
          9.1545473175e-07 1.6933953961e-06 1.9688903458e-06 1.044374945e-06 8.4296543238e-07 1.0000333354e-06
          1.0234587146e-06 8.6813332309e-07 8.6812200364e-07 1.8380337582e-06 9.6119895247e-07 1.8951747386e-06
          9.4829976485e-07 1.0087584365e-06 9.3649303996e-07 9.9466454784e-07 1.0427478199e-06 1.0657280261e-06
          1.7992457704e-06 1.6621713531e-06 1.794141533e-06 1.8997948062e-06 9.2223063544e-07 1.0650994686e-06
          9.6922716589e-07 9.7355555067e-07 8.2266125659e-07 1.8189026105e-06 1.6626305394e-06 9.14900139e-07
          8.7027233008e-07 1.0523235459e-06 9.7297535012e-07 1.7464798724e-06 1.8819335929e-06 1.7875521867e-06
          1.6681431068e-06 1.654480012e-06 1.7587416392e-06 9.193250499e-07 1.0315012896e-06 9.2110300892e-07
          9.0119115904e-07 8.9548817076e-07 8.6698102823e-07 1.0066603869e-06 9.1975976446e-07 1.8644677699e-06
          8.6650218864e-07 9.7040560465e-07 1.007175406e-06 8.4212248176e-07 8.6316318004e-07 1.8461924241e-06
          1.7345097311e-06 8.5759840374e-07 8.660236109e-07 8.4461680022e-07 9.548869256e-07 9.8125004643e-07
          9.4747715337e-07 1.6183486858e-06 1.9392021935e-06 8.4358715242e-07 1.0063442849e-06 9.4231634445e-07
          1.6425616759e-06 9.7601630748e-07 9.9832951744e-07 9.2774972864e-07 1.0099977915e-06 1.0429907578e-06
          1.6636827735e-06 1.040538552e-06 8.1498216693e-07 9.8192786677e-07 9.6912758315e-07 1.0087368576e-06
          9.6921804774e-07 9.0080053447e-07 9.189170051e-07 8.6953339238e-07 1.6444552655e-06 9.508154547e-07
          1.6690588254e-06 9.0716540092e-07 9.2330732258e-07 8.8219686365e-07 9.4707851655e-07 1.741456736e-06
          9.9513156934e-07 1.0211010174e-06 1.0271461062e-06 1.655984443e-06 9.9273330799e-07 9.6248240934e-07
          9.9019983278e-07 1.5786855162e-06 8.5677280838e-07 1.7932777538e-06 8.7917212482e-07 9.3843182424e-07
          9.6497589177e-07 1.0412797454e-06 9.6511067547e-07 1.8391898296e-06 8.4354868703e-07 1.6662798674e-06
          9.5286728153e-07 9.1472969718e-07 1.0294436808e-06 9.1276312608e-07 8.6806634185e-07 9.2968183765e-07
          9.6653278141e-07 1.5441327029e-06 8.8403906421e-07 1.6666726404e-06 8.53945553e-07 9.0985601036e-07
          1.0327376511e-06 9.2743110457e-07 9.416084396e-07 1.8952945964e-06 9.2345536668e-07 9.1153812908e-07
          1.8445650326e-06 1.74089163e-06 1.5248735142e-06 1.0367200237e-06 9.4514057155e-07 8.7825380961e-07
          8.900554295e-07 9.0560121839e-07 9.540269139e-07 1.0291899976e-06 1.9025381716e-06 1.6214253257e-06
          1.0024727788e-06 1.5114512222e-06 1.863570154e-06 1.006685301e-06 8.5447388169e-07 8.7071780353e-07
          8.9476034179e-07 8.6411367958e-07 9.6910851475e-07 1.05147732e-06 9.8631199782e-07 8.3560682169e-07
          8.5178142768e-07 1.0200940421e-06 8.694354244e-07 1.0090268452e-06 8.6774109039e-07 8.2325569219e-07
          9.1379434761e-07 8.462283172e-07 8.7990363699e-07 8.9915851582e-07 9.4420061827e-07 9.1327933209e-07
          9.7896013839e-07 1.0292108462e-06 1.8027570508e-06 1.7023264704e-06 1.928831671e-06 9.4579399893e-07
          1.6488095375e-06 1.72110497e-06 8.4107099368e-07 9.7576089392e-07 8.5625234132e-07 9.5781042673e-07
          1.6753350079e-06 1.6490856672e-06 8.9564165916e-07 9.0881780978e-07 8.5425710459e-07 1.0068176321e-06
          1.7309771852e-06 1.0413730498e-06 8.9639951169e-07 9.0530285417e-07 1.5614354808e-06 1.6808579378e-06
          1.5730021543e-06 8.7189365464e-07 8.9907934214e-07 9.2999882658e-07 1.4866968567e-06 1.7606034693e-06
          1.0238573775e-06 9.5782410166e-07 1.5781423285e-06 1.0155823983e-06 1.7203792914e-06 1.7059092926e-06
          9.3535717077e-07 9.2248669155e-07 1.00868607e-06 1.7951261051e-06 8.9992889126e-07 8.4124935105e-07
          8.6841377747e-07 1.9538439039e-06 8.5615953407e-07 1.6350738453e-06 1.0437874995e-06 8.9971342812e-07
          1.7236500678e-06 9.8245467541e-07 8.7052094637e-07 1.0115778162e-06 1.6595370447e-06 1.5364137147e-06
          1.6500284589e-06 9.3474480144e-07 8.1649569304e-07 8.8679222939e-07 1.0580325239e-06 1.6636828113e-06
          1.0158902424e-06 9.2968667957e-07 1.6942764955e-06 9.5173755468e-07 8.5633195684e-07 9.4279870629e-07
          9.6237788024e-07 1.7753547352e-06 1.7454513571e-06 1.6559844896e-06 9.9030119997e-07 9.9065127745e-07
          1.7587417033e-06 1.7213628264e-06 1.6651969837e-06 1.8753299567e-06 1.968462108e-06 1.7219455683e-06
          1.8639336319e-06 1.7704548994e-06 1.84494456e-06 1.6912278797e-06 1.7804055234e-06 1.923228943e-06
          1.6975639128e-06 1.8185836807e-06 1.6445975898e-06 1.939202263e-06 1.0019700547e-06 9.8817967405e-07
          8.7308277047e-07 8.9280821481e-07 9.1686322277e-07 9.6990691342e-07 9.3056891626e-07 8.4162050113e-07
          9.6932849007e-07 9.6364832233e-07 9.1669508633e-07 8.5604495213e-07 9.0493458716e-07 1.9474266438e-06
          1.0515970299e-06 9.0639751905e-07 8.903393974e-07 1.0650571349e-06 9.3075746585e-07 1.0001210913e-06
          9.0816950192e-07 9.3135332582e-07 8.9575370883e-07 8.0968212561e-07 8.2571359797e-07 8.1218003249e-07
          9.0983606245e-07 9.9148603752e-07 1.6603496937e-06 1.0227792132e-06 1.0500656843e-06 1.0354152315e-06
          9.1810160722e-07 1.0106736343e-06 1.0608324371e-06 1.0561473596e-06 1.7594778013e-06 1.7441647034e-06
          1.6370151106e-06 1.8201338023e-06 1.9072757976e-06 1.7711072687e-06 8.2686206527e-07 9.8557272382e-07
          9.1476905396e-07 1.6167690119e-06 9.1655619446e-07 9.3371768793e-07 8.8837494257e-07 8.607749854e-07
          1.9563423858e-06 1.0359217577e-06 8.8243604481e-07 9.1787117494e-07 9.409665632e-07 8.211642841e-07
          9.6938664775e-07 9.8603534951e-07 8.7053002581e-07 1.7826620602e-06 9.3782587166e-07 1.0066505009e-06
          9.5781504871e-07 1.8301581468e-06 1.7374625211e-06 9.8961089209e-07 8.4403442157e-07 1.7279660631e-06
          1.0040298313e-06 8.7080140858e-07 9.0102339248e-07 9.4325178696e-07 9.4480685124e-07 8.843301998e-07
          1.7209438178e-06 9.6104878455e-07 8.1386871376e-07 8.6045469066e-07 1.6338339773e-06 8.6929075265e-07
          9.1156720985e-07 9.8115476705e-07 9.3878465804e-07 9.0401482747e-07 9.0017316686e-07 9.1065386883e-07
          1.9225451298e-06 9.1439901367e-07 8.4825039361e-07 1.0328019914e-06 8.8831306273e-07 8.9155995211e-07
          1.5409946964e-06 1.8356367804e-06 9.5437138023e-07 8.9110599137e-07 8.9798751315e-07 9.2237935253e-07
          1.0598655491e-06 1.0478796218e-06 9.5795865883e-07 8.3959333717e-07 8.3457057987e-07 1.5626235541e-06
          9.783554676e-07 9.5721470835e-07 1.0364671858e-06 8.5919248547e-07 1.0644735501e-06 1.0338510253e-06
          9.0160590321e-07 1.860783527e-06 9.0027074352e-07 9.4615200275e-07 1.0465942888e-06 1.0547211967e-06
          8.3761849413e-07 1.0185849759e-06 1.046671161e-06 1.779117882e-06 8.4642667853e-07 8.6757491854e-07
          9.5962492053e-07 1.0437766387e-06 8.6645971819e-07 8.7970500364e-07 9.8745424262e-07 1.026961538e-06
          1.0522537573e-06 1.716682136e-06 8.7920303784e-07 8.0717892693e-07 8.1214095968e-07 9.1129560987e-07
          1.5738409167e-06 1.0524823641e-06 8.8129125676e-07 8.8397822382e-07 1.5813088762e-06 8.5793494581e-07
          1.0631805897e-06 8.9942245365e-07 9.4252073039e-07 9.2695385782e-07 8.3083217682e-07 8.7202710879e-07
          8.6665197696e-07 1.0588710022e-06 1.0548470422e-06 8.8192212546e-07 9.9558272294e-07 8.4099136182e-07
          1.709302248e-06 1.5739917213e-06 9.6191512706e-07 1.6418815311e-06 9.5958990279e-07 8.9843252043e-07
          8.5487399829e-07 8.8986576792e-07 8.6791428304e-07 8.2778353766e-07 8.5674727926e-07 8.3748473011e-07
          8.607120456e-07 1.6412434378e-06 1.0150797789e-06 9.1356784524e-07 9.4737885977e-07 1.0254630773e-06
          8.6071679941e-07 8.4884962057e-07 8.7434427107e-07 9.7850470844e-07 9.3079879129e-07 9.9666890838e-07
          1.588356771e-06 8.834681427e-07 8.8185632365e-07 1.0118664982e-06 8.960225239e-07 9.9192738626e-07
          8.7441763805e-07 8.0776879413e-07 1.7578901165e-06 1.7137095172e-06 9.5795029313e-07 9.6622390784e-07
          1.8041921111e-06 1.0434429042e-06 9.6706660679e-07 9.3328428659e-07 9.6301410371e-07 9.7107026632e-07
          9.0034463248e-07 1.8074707578e-06 1.8808688824e-06 1.7159811392e-06 8.8705335868e-07 8.9072053732e-07
          9.3206886055e-07 9.9122907381e-07 9.3901277825e-07 1.6624665404e-06 1.6946809614e-06 9.2168675514e-07
          9.7721983605e-07 9.4509986398e-07 9.411760415e-07 1.0329894287e-06 8.9324537498e-07 8.5259086379e-07
          9.0738650414e-07 9.4225982262e-07 9.7772053826e-07 9.3748166396e-07 1.0173885895e-06 9.1152383532e-07
          8.6066801773e-07 9.6019585003e-07 9.4001263698e-07 9.3325539722e-07 9.7336001155e-07 8.4440456623e-07
          9.3341628491e-07 8.8512924989e-07 1.0561850419e-06 8.7547560976e-07 8.5220559363e-07 9.1506856118e-07
          8.2341700217e-07 8.6325083463e-07 1.8148623499e-06 1.5896856892e-06 1.6108210376e-06 9.0529340386e-07
          8.1667833723e-07 9.0555130802e-07 9.6755364963e-07 8.2885274329e-07 1.0476559491e-06 9.5408166072e-07
          9.0798622579e-07 8.9819114056e-07 1.0231278095e-06 1.6923741293e-06 8.5277904947e-07 8.8049983342e-07
          8.6936303778e-07 7.9681458576e-07 1.011886181e-06 1.7611085758e-06 9.0798462389e-07 9.2356562017e-07
          9.0034093766e-07 8.4707934052e-07 1.0321625405e-06 8.1325912514e-07 9.7299500625e-07 9.1741791545e-07
          1.029221017e-06 1.6205848583e-06 9.6224083724e-07 1.9341563613e-06 8.773371253e-07 9.2772672034e-07
          8.2689469798e-07 1.0634681693e-06 9.4149039448e-07 8.9682832518e-07 8.9409354654e-07 1.6390712447e-06
          1.0041381604e-06 9.5217202089e-07 8.2287402859e-07 1.8660248667e-06 8.6700389528e-07 8.3016304323e-07
          9.7606533145e-07 1.0204653827e-06 9.5129162449e-07 8.9599888209e-07 1.0068684862e-06 9.2741863699e-07
          9.9149382562e-07 9.4606158933e-07 9.3464620981e-07 9.2401072995e-07 8.6117177556e-07 1.0239331673e-06
          9.1262951042e-07 9.0139094837e-07 1.7310583284e-06 9.9807151878e-07 8.2160745344e-07 9.608816223e-07
        </DataArray>
      </PointData>
      <CellData>
      </CellData>
      <Points>
        <DataArray type="Float32" Name="Points" NumberOfComponents="3" format="ascii" RangeMin="9.7034266363e-06" RangeMax="0.00013274717239">
          1.8537244614e-05 2.3384825909e-05 4.698836733e-07 2.0065901481e-05 2.3610151402e-05 4.590287972e-07
          1.8855236704e-05 2.2507987524e-05 5.0252708661e-07 1.9983410311e-05 2.2683263524e-05 7.3777999887e-07
          1.9227143639e-05 2.3899325242e-05 5.6962380768e-07 2.0307212253e-05 2.1958825528e-05 1.2480862779e-06
          1.8143433408e-05 2.2816706405e-05 1.1548870589e-06 2.0655745175e-05 2.3422453523e-05 1.1020941884e-06
          1.8112270482e-05 2.3969632821e-05 1.3268081602e-06 1.965503543e-05 2.3575576051e-05 1.3036565178e-06
          4.9561876949e-06 8.6039972302e-06 1.8620859237e-06 4.1214134399e-05 1.5594381694e-05 1.6732545873e-06
          1.2821177734e-05 1.7071999537e-05 1.7229721152e-06 1.8772334442e-05 2.2305874154e-05 1.7154062562e-06
          1.9530838472e-05 2.2848067601e-05 1.890961812e-06 2.0417692213e-05 2.2749085474e-05 1.6332940049e-06
          1.8765844288e-05 2.3391708964e-05 1.6774995402e-06 2.1007121177e-05 2.2944943339e-05 2.2736837764e-06
          1.9754255845e-05 2.3669337679e-05 2.2118774723e-06 2.0833847884e-05 2.3890897864e-05 2.3203640467e-06
          4.9650127039e-05 1.2339363821e-05 2.9902053029e-06 1.3393177142e-05 1.5488256395e-05 2.5784972877e-06
          4.006969175e-05 1.5442585209e-05 2.7289556783e-06 2.0436365958e-05 2.2947797333e-05 2.9467732929e-06
          1.8920631192e-05 2.3040596716e-05 2.5457288757e-06 1.918682392e-05 2.3837468689e-05 2.8714980544e-06
          5.5345644796e-06 7.2657444434e-06 3.276284815e-06 4.2894735088e-06 8.0471045294e-06 3.813621106e-06
          4.9707279686e-05 1.4104548427e-05 3.5637838209e-06 4.1325944039e-05 1.4883736185e-05 3.7617760427e-06
          4.9587255489e-05 1.243209681e-05 4.0304662434e-06 4.974332478e-05 1.3017947822e-05 4.8256147238e-06
          3.1817322451e-05 8.7819116743e-06 5.1217698456e-06 1.4430530655e-06 9.2227464847e-06 5.4827360145e-06
          4.1564482672e-05 1.5726389393e-05 5.2234076975e-06 3.1037998269e-05 7.5503189692e-06 5.7944621403e-06
          1.7996519091e-05 5.3870016927e-06 6.2920512391e-06 1.64406556e-05 5.9983908614e-06 6.0536449382e-06
          1.4559645933e-05 8.308867109e-06 6.9674110819e-06 3.2143700082e-05 9.155754924e-06 6.826801382e-06
          2.0586569462e-06 1.0922634829e-05 6.9470083872e-06 2.5863420888e-05 1.6637013687e-05 6.5195445131e-06
          1.4896858147e-06 9.2439750006e-06 7.1067925091e-06 1.4642560927e-05 9.5851000879e-06 7.9384326455e-06
          4.6099794417e-05 1.0776147064e-05 7.8555258369e-06 4.6686385758e-05 1.2385934497e-05 8.0401259765e-06
          2.5344792448e-05 1.6957905245e-05 8.1742537077e-06 2.1040697902e-05 2.4121707611e-05 7.5513816e-07
          1.370618611e-05 3.8497342757e-05 8.9780292001e-07 2.0628172933e-05 2.4492750526e-05 1.5176208308e-06
          1.4508960703e-05 3.9869679313e-05 1.6891622181e-06 2.002313704e-05 2.4504392059e-05 2.2461176741e-06
          1.4060417925e-05 3.8501457311e-05 2.6214900117e-06 1.4547971659e-05 4.1070139559e-05 2.8127947189e-06
          4.4961401727e-05 4.1218314436e-05 2.9389236715e-06 4.6658278734e-05 4.1300248995e-05 2.847513997e-06
          2.9358538086e-05 4.0717528464e-05 3.2852090044e-06 4.583766713e-05 4.092008021e-05 3.0072856134e-06
          4.5230404794e-05 3.9844529965e-05 3.7445695398e-06 4.4798249291e-05 4.0585720853e-05 3.526307637e-06
          4.5364267862e-05 4.1193834477e-05 3.8362031773e-06 4.6334636863e-05 4.1077433707e-05 3.7285979033e-06
          4.6626490075e-05 4.1882976802e-05 3.5292976008e-06 4.5397158829e-05 4.2167532229e-05 3.7333275031e-06
          4.4566542783e-05 3.9796810597e-05 4.4707621782e-06 4.6892826504e-05 4.0422855818e-05 4.4379939936e-06
          4.6236818889e-05 4.2414194468e-05 4.0518343667e-06 4.6787454266e-06 3.1526320527e-05 4.996518328e-06
          3.9028072933e-05 3.9152910176e-05 4.9632844821e-06 2.9850925785e-05 4.0301416448e-05 4.9506229516e-06
          4.5478805987e-05 4.0290524339e-05 4.6949789976e-06 4.4601289119e-05 4.0691247705e-05 4.8949264055e-06
          4.6202076192e-05 4.0913288103e-05 4.6021309572e-06 4.5306624088e-05 4.1242841689e-05 4.726483894e-06
          4.7059056669e-05 4.1820334445e-05 4.9719328672e-06 4.6360441047e-05 4.2326584662e-05 4.8437500482e-06
          3.1796676922e-05 4.8468100431e-05 4.9532186495e-06 3.0279663406e-05 4.9064223276e-05 4.7207659009e-06
          4.9214099818e-06 3.2979052776e-05 5.3918320191e-06 2.8974478482e-05 3.9054157241e-05 5.4659035413e-06
          4.4448002882e-05 4.1685474571e-05 5.0195112635e-06 4.6358683903e-05 4.1665589379e-05 5.4660972637e-06
          4.5589960791e-05 4.2357612983e-05 5.2107484407e-06 4.7528506002e-06 3.1547187973e-05 5.852236427e-06
          4.2483575271e-06 3.2434956665e-05 5.8492914832e-06 4.1724056246e-06 3.3441305277e-05 5.8241071201e-06
          5.6113653955e-06 3.3319996874e-05 5.9317053456e-06 5.0074354476e-06 3.4258198866e-05 5.9230983425e-06
          3.9586229832e-05 3.7607493141e-05 5.7981069403e-06 1.7192214727e-05 3.9755341277e-05 5.5131404224e-06
          4.5631317334e-05 4.0105791413e-05 5.673456144e-06 4.6177796321e-05 4.0992756112e-05 5.9488224906e-06
          1.7793929146e-05 4.1406630771e-05 5.7024990383e-06 4.4670967327e-05 4.1131908802e-05 5.7028755691e-06
          4.5464075811e-05 4.1516188503e-05 5.5608356888e-06 4.6014879445e-06 2.9499966331e-05 6.021966783e-06
          4.3188538257e-06 3.4665226849e-05 6.4486125666e-06 3.6470981286e-05 3.9306902181e-05 6.4421874413e-06
          3.7333109503e-05 3.9672173443e-05 6.3218381001e-06 3.5839970224e-05 4.0353523218e-05 6.1679447754e-06
          4.5315220632e-05 4.0555270971e-05 6.4396012931e-06 3.1743995351e-05 4.9776164815e-05 6.1973605625e-06
          4.4351036195e-06 3.1578099879e-05 6.7225328166e-06 3.73640205e-06 3.2179032132e-05 6.7349069468e-06
          4.5662964112e-06 3.2649990317e-05 6.796706657e-06 5.4078286666e-06 3.307645602e-05 6.7297019086e-06
          4.4196854105e-06 3.3515061659e-05 6.7334722189e-06 5.2875416259e-06 3.396980901e-05 6.6647021413e-06
          6.4054720497e-06 3.3554322727e-05 6.5215854193e-06 6.086900612e-06 3.4145683458e-05 6.9520879151e-06
          3.6278084735e-05 4.0223570977e-05 6.8801641646e-06 4.4709449867e-05 4.1189101466e-05 6.5381354943e-06
          4.5996417612e-05 4.1023649828e-05 6.7830160333e-06 3.1350409699e-06 3.1663483242e-05 7.1229483183e-06
          5.1868537412e-06 3.2158532122e-05 7.1418048719e-06 3.3637420529e-06 3.2897845813e-05 7.3804285421e-06
          6.0045367718e-06 3.2608375477e-05 7.1833314905e-06 5.0838684729e-06 3.3554599213e-05 7.4016829785e-06
          7.0905211942e-06 3.3511871152e-05 7.1491676863e-06 4.4881257963e-06 3.4291682823e-05 7.3294399954e-06
          3.7628346035e-05 3.812362047e-05 7.3773339864e-06 3.63935942e-05 3.933323751e-05 7.3537516982e-06
          3.714828199e-05 3.9961039874e-05 7.1763761298e-06 3.8754842535e-05 3.9696253225e-05 7.4043969107e-06
          3.6782083043e-05 4.1022845835e-05 7.0052769843e-06 4.2789838517e-06 2.9448770874e-05 7.6413189163e-06
          6.2681579038e-06 2.9135637305e-05 7.8534912973e-06 4.2061828935e-06 3.1902898627e-05 7.670811101e-06
          4.1872585825e-06 3.2802621718e-05 7.5562179518e-06 5.3347384892e-06 3.2743606425e-05 7.8702014434e-06
          6.6129887273e-06 3.27531925e-05 7.8370258052e-06 6.2776189225e-06 3.4241595131e-05 7.7747481555e-06
          3.7437413994e-05 3.9097940316e-05 7.5172833931e-06 3.7911053369e-05 3.9937891415e-05 7.776975508e-06
          3.6460707634e-05 4.0176077164e-05 7.7681761468e-06 3.7486610381e-05 4.0698625526e-05 7.5187313087e-06
          3.7917176087e-05 4.146512947e-05 7.6576961874e-06 4.1488456191e-06 3.2580224797e-05 8.4200273704e-06
          4.3461736823e-06 3.3558462746e-05 8.0070585682e-06 5.8821410676e-06 3.3540782169e-05 8.1392936409e-06
          5.1927513596e-06 3.4235774365e-05 8.0112558862e-06 3.7685280404e-05 3.924092016e-05 8.4782996055e-06
          3.9135331463e-05 3.9659589675e-05 8.2832448243e-06 3.7098045141e-05 4.0121867642e-05 8.3927507148e-06
          3.5981483961e-05 4.0588398406e-05 8.3813538367e-06 3.5952569306e-05 4.1456572944e-05 8.1743501141e-06
          3.7439163862e-05 4.1017181502e-05 8.3179547801e-06 3.6894743971e-05 4.1689199861e-05 8.1453017629e-06
          4.9583436521e-06 3.1973624573e-05 8.5513192971e-06 5.1601737141e-06 3.2819018088e-05 8.7640037236e-06
          3.6752338929e-05 3.9190439566e-05 8.5593210315e-06 3.829018533e-05 3.9989346988e-05 8.6982336143e-06