<?xml version="1.0"?>
<VTKFile type="UnstructuredGrid" version="0.1" byte_order="LittleEndian" header_type="UInt32" compressor="vtkZLibDataCompressor">
  <UnstructuredGrid>
    <Piece NumberOfPoints="195" NumberOfCells="195">
      <PointData>
        <DataArray type="Int32" Name="id" format="ascii" RangeMin="1" RangeMax="195">
          133 174 75 19 134 59
          50 123 97 49 42 118
          131 15 22 44 3 93
          40 1 78 176 175 54
          150 117 24 7 124 119
          20 109 154 62 106 84
          141 161 137 61 166 188
          148 121 77 177 32 51
          60 85 105 81 151 167
          129 155 67 18 92 160
          145 135 14 26 82 57
          158 89 12 181 186 189
          192 111 64 37 34 142
          156 90 168 79 46 35
          101 157 2 126 86 115
          136 69 48 120 72 149
          39 13 99 30 113 23
          96 95 182 187 110 43
          127 56 33 159 73 6
          38 179 146 47 87 116
          17 173 88 41 169 91
          102 58 10 190 107 11
          162 66 138 103 45 130
          152 36 191 125 55 163
          25 80 147 74 5 140
          4 132 108 164 9 76
          139 52 183 184 185 193
          195 68 104 21 29 65
          170 122 178 28 8 83
          94 114 144 63 53 165
          153 27 70 171 31 128
          180 16 112 172 100 71
          98 143 194
        </DataArray>
        <DataArray type="Int32" Name="type" format="ascii" RangeMin="1" RangeMax="2">
          2 2 2 1 1 1
          1 1 1 1 1 1
          1 1 1 1 1 1
          1 1 2 2 2 1
          1 1 1 1 2 1
          1 2 2 2 2 1
          2 2 2 2 1 2
          2 2 2 2 1 1
          1 1 2 1 1 1
          1 2 2 1 1 1
          1 2 1 1 1 1
          2 1 1 2 1 2
          1 2 2 1 1 2
          2 1 1 2 1 1
          1 2 1 1 1 1
          2 2 1 1 2 2
          1 1 1 1 2 1
          1 1 2 1 1 1
          2 1 1 2 2 1
          1 1 1 1 1 1
          1 1 1 1 1 1
          1 1 1 2 2 1
          2 2 2 1 1 1
          1 1 2 2 1 2
          1 1 1 2 1 1
          1 2 2 2 1 2
          2 1 2 2 2 1
          2 2 1 1 1 2
          2 2 2 1 1 1
          1 2 2 2 1 2
          1 1 2 2 1 2
          2 1 2 2 1 2
          1 2 1
        </DataArray>
        <DataArray type="Float64" Name="diameter" format="ascii" RangeMin="8.3423390924e-07" RangeMax="1.9607379716e-06">
          1.039464847e-06 9.5090360043e-07 8.8598769825e-07 1.6766921057e-06 1.6268835477e-06 1.7396838327e-06
          1.7282557544e-06 1.7613320617e-06 1.9170820833e-06 1.7832020003e-06 1.8575412425e-06 1.8024954021e-06
          1.5836934422e-06 1.6738075727e-06 1.7930432868e-06 1.9607379716e-06 1.8962400154e-06 1.9509361721e-06
          1.8116505314e-06 1.7066330611e-06 9.4842691488e-07 9.1929961468e-07 9.0992774833e-07 1.8372384088e-06
          1.5673634355e-06 1.7927844447e-06 1.6650269019e-06 1.9478383499e-06 9.2084087425e-07 1.6316841412e-06
          1.8368728908e-06 1.0266184972e-06 9.4241821126e-07 9.9785951922e-07 9.7896363625e-07 1.6347668763e-06
          1.0568634976e-06 9.2110854169e-07 8.8561546915e-07 1.0340185276e-06 1.577396939e-06 8.3423390924e-07
          1.020921295e-06 9.738187253e-07 9.5787399883e-07 9.0465429572e-07 1.8862786141e-06 1.8563106542e-06
          1.7293798264e-06 1.5286514265e-06 9.7643774585e-07 1.6646315355e-06 1.5803720793e-06 1.5758887652e-06
          1.6686895738e-06 1.0052043813e-06 9.0726790059e-07 1.5976376879e-06 1.8352040083e-06 1.5701009826e-06
          1.5447951823e-06 8.9007913795e-07 1.6530011652e-06 1.9495568016e-06 1.6376599861e-06 1.8805720325e-06
          9.8218834868e-07 1.8044506175e-06 1.7033031681e-06 8.5361430636e-07 1.6144415885e-06 8.5400491155e-07
          1.5340249809e-06 1.029805311e-06 1.0017143017e-06 1.8368728179e-06 1.8335593081e-06 1.0591125624e-06
          9.4247537942e-07 1.5296129344e-06 1.5751300747e-06 9.9269643195e-07 1.8411882909e-06 1.947838319e-06
          1.7692130345e-06 9.5243213408e-07 1.7526337024e-06 1.6647368083e-06 1.6368715596e-06 1.6710992086e-06
          9.057222899e-07 1.0573961439e-06 1.784522208e-06 1.6941941922e-06 1.0206716265e-06 9.6396287258e-07
          1.9561185072e-06 1.8425669657e-06 1.755843833e-06 1.8263967916e-06 9.8381202134e-07 1.8652516362e-06
          1.7372636769e-06 1.9185939022e-06 8.5317417425e-07 1.6154570567e-06 1.7161637362e-06 1.9478383569e-06
          8.7729412476e-07 1.8230990451e-06 1.7918875322e-06 1.0061071727e-06 9.3752111183e-07 1.8368728278e-06
          1.8663180205e-06 1.5593873272e-06 1.5447952041e-06 1.9020821082e-06 1.6472008239e-06 1.7290036527e-06
          1.6371908153e-06 1.5550835345e-06 1.620511725e-06 1.8608801847e-06 1.5638236742e-06 1.9605303533e-06
          1.6892729909e-06 1.7033031919e-06 1.9220391911e-06 8.683390916e-07 9.5579555968e-07 1.7105271253e-06
          9.4601089981e-07 1.0212757544e-06 8.4871772049e-07 1.884952222e-06 1.8446416527e-06 1.7600837744e-06
          1.6752604919e-06 1.5556564984e-06 8.9007337892e-07 9.3662321409e-07 1.885467329e-06 9.6421688167e-07
          1.7183582793e-06 1.6075240314e-06 1.5261045741e-06 9.211647452e-07 1.8575412336e-06 1.688672365e-06
          1.6123361802e-06 9.0371849419e-07 9.7590837298e-07 9.2168667583e-07 1.6344238856e-06 1.0333577791e-06
          8.6049664706e-07 1.9349387899e-06 8.6670811472e-07 8.6699906112e-07 8.8371807372e-07 1.5177633289e-06
          8.5905788617e-07 8.890010077e-07 1.7459237651e-06 1.7801436559e-06 1.854713456e-06 9.5305174441e-07
          9.1450300466e-07 9.8154328964e-07 8.5959084911e-07 1.8563106472e-06 1.9478383237e-06 1.6520659426e-06
          1.9509361842e-06 1.0460145618e-06 9.8741718187e-07 9.7729401479e-07 1.8116505413e-06 9.1949924824e-07
          1.5940889167e-06 1.9128893813e-06 9.472264449e-07 9.4262382924e-07 1.7764952499e-06 9.4420419321e-07
          8.4469460119e-07 1.6390276118e-06 9.6084737693e-07 9.0510101885e-07 1.6988711167e-06 1.0255622782e-06
          1.8661733144e-06 1.0557761616e-06 1.486501056e-06
        </DataArray>
      </PointData>
      <CellData>
      </CellData>
      <Points>
        <DataArray type="Float32" Name="Points" NumberOfComponents="3" format="ascii" RangeMin="9.7672152958e-06" RangeMax="0.00013162643943">
          1.9497978428e-05 2.3358674298e-05 5.1577228533e-07 1.9581279048e-05 2.3116166631e-05 1.4449865375e-06
          2.0227200366e-05 2.373872303e-05 1.4194172309e-06 4.9555333135e-06 8.5538576968e-06 1.9486051315e-06
          1.2851462088e-05 1.6988147763e-05 1.7682681346e-06 4.0733597416e-05 1.5487901692e-05 2.4898090487e-06
          1.3362891877e-05 1.5572108168e-05 2.5332012683e-06 4.9442137424e-06 7.686770914e-06 3.4448219139e-06
          4.1289789806e-05 1.5513160179e-05 4.2021902118e-06 3.1451425457e-05 8.1974958448e-06 5.5240225265e-06
          1.7200000002e-05 5.7000002016e-06 6.1699997786e-06 1.4945727571e-06 9.3156895673e-06 6.2992357925e-06
          3.2112217013e-05 9.1121773949e-06 6.7675564424e-06 2.027528808e-06 1.0833342458e-05 6.9199195423e-06
          1.4600000213e-05 8.9300001491e-06 7.4399999903e-06 2.5600000299e-05 1.6800000594e-05 7.3599999268e-06
          4.6400000429e-05 1.1600000107e-05 7.9499995991e-06 1.3899272744e-05 3.8643644075e-05 1.6197709556e-06
          1.4482788174e-05 4.0305272705e-05 2.2993369839e-06 2.940552622e-05 4.0623275709e-05 3.5396085423e-06
          4.5861645049e-05 4.09492568e-05 3.8338812374e-06 4.5184024202e-05 4.0827813791e-05 4.8688452807e-06
          4.5671917178e-05 4.1478786443e-05 4.5338370001e-06 3.1043218769e-05 4.8806137784e-05 4.8785818763e-06
          3.9064412704e-05 3.905228732e-05 5.0176395234e-06 2.9394221201e-05 3.9757382183e-05 5.0337680477e-06
          3.9549886424e-05 3.7708112359e-05 5.7437514442e-06 1.7500000467e-05 4.059999992e-05 5.6099997892e-06
          4.5700024202e-05 4.1127797886e-05 5.5225423239e-06 3.1720384868e-05 4.9743481213e-05 6.1529271989e-06
          4.6527320592e-06 2.9519362215e-05 6.8962986006e-06 4.5955139285e-06 3.2645049941e-05 6.6771308411e-06
          5.853483799e-06 3.3389918826e-05 7.1667718657e-06 4.9289183153e-06 3.3560863812e-05 7.1454023782e-06
          3.6918958358e-05 3.9797854697e-05 7.2396564974e-06 6.0185561779e-06 2.922656131e-05 7.918083611e-06
          4.6640761866e-06 3.2770851249e-05 7.6797323345e-06 3.6686436943e-05 4.0441191231e-05 7.8505927377e-06
          3.6177203583e-05 4.0528204408e-05 8.8032347776e-06 3.7842954043e-05 4.010736302e-05 8.6255640781e-06
          5.162814432e-06 2.966991633e-05 9.2173759185e-06 3.6980214645e-05 4.0291772166e-05 8.8955566753e-06
          3.5756431316e-05 6.9844209065e-05 2.1558748813e-06 3.6658471799e-05 6.9536603405e-05 2.2536200959e-06
          3.6502711737e-05 7.0494279498e-05 2.2578688004e-06 3.7423971662e-05 7.0430804044e-05 2.2154158614e-06
          3.5306176869e-05 7.2273112892e-05 1.9936178433e-06 3.7406809952e-06 5.7287314121e-05 3.1500471778e-06
          1.5952040485e-05 6.7344051786e-05 3.6858543808e-06 3.5254288377e-05 7.0702895755e-05 3.1996714824e-06
          4.0474524212e-06 7.311074296e-05 4.2347733142e-06 4.0419531615e-06 5.6543125538e-05 4.8537576731e-06
          4.5897013479e-06 5.8046312915e-05 5.0261332945e-06 9.222708286e-06 6.7021828727e-05 5.1014867495e-06
          1.5456185793e-05 6.765085709e-05 5.2679010878e-06 4.0101563172e-06 7.3312301538e-05 5.1899992286e-06
          5.0579969866e-06 7.3250354035e-05 5.0114517762e-06 1.0057895452e-05 5.4713007557e-05 5.5651776165e-06
          2.3121086997e-05 6.5472246206e-05 5.8928376347e-06 5.878338925e-06 6.2757026171e-05 6.4237624429e-06
          4.9354753173e-06 7.0349531597e-05 6.2772837737e-06 4.5290494199e-06 7.2980095865e-05 5.8865607571e-06
          7.3581481956e-06 6.2175517087e-05 6.6505149334e-06 2.3693271942e-05 6.3887993747e-05 6.7486398621e-06
          9.2741374829e-06 6.7057597334e-05 6.7186415436e-06 9.8325335784e-06 6.870454672e-05 6.5690401243e-06
          2.875149039e-05 7.3957919085e-05 6.8711924541e-06 7.3239266385e-06 6.3476072683e-05 7.897229807e-06
          5.3439612202e-06 7.0665497333e-05 7.7949298429e-06 4.9001173466e-06 7.3777875514e-05 5.6670996855e-06
          3.5335062421e-05 7.1946167736e-05 4.1456114559e-06 4.3146246753e-06 7.3443232395e-05 6.5612348408e-06
          9.297548786e-06 5.3511401347e-05 6.2214908212e-06 4.8870748287e-05 8.393596363e-05 7.1881976282e-07
          4.975126285e-05 8.4441497165e-05 8.6347102979e-07 3.8396392483e-05 8.4586383309e-05 1.4124453855e-06
          9.1298843472e-06 8.3833016106e-05 1.8389216621e-06 4.8982215958e-05 8.4166807937e-05 1.7197590978e-06
          4.9559141189e-05 8.5003208369e-05 1.6079363832e-06 5.2082464208e-06 7.788628136e-05 2.2034762424e-06
          3.9295166061e-05 8.4586914454e-05 2.8536999253e-06 7.2267725955e-06 8.6358268163e-05 2.7906569358e-06
          5.9618091655e-06 8.0547164544e-05 3.5140785712e-06 4.3299998651e-05 7.6700001955e-05 3.8200000745e-06
          8.5983483586e-06 8.416188939e-05 3.5348114125e-06 6.9919883572e-06 8.6874613771e-05 3.5570838008e-06
          3.9995968109e-05 9.128722013e-05 3.8819671317e-06 3.8441176002e-05 9.1898182291e-05 3.6437249946e-06
          3.9124275645e-05 8.4643645096e-05 4.450036613e-06 2.4984763513e-05 8.9333509095e-05 4.4703319872e-06
          6.7726909947e-06 8.70606018e-05 4.6549507715e-06 8.4813736976e-06 8.664613415e-05 4.8001224968e-06
          4.5599455916e-05 7.797521539e-05 5.3154190027e-06 4.6186709369e-05 7.9586818174e-05 5.5002274166e-06
          2.8874592317e-05 7.4515737651e-05 6.0508832576e-06 2.9830238418e-05 7.436805754e-05 6.1369655668e-06
          4.7319528676e-05 7.6673342846e-05 6.2539970713e-06 2.5434706913e-05 8.9681547252e-05 6.1420064412e-06
          1.1933425412e-05 7.6038086263e-05 6.9612906373e-06 4.7705922043e-05 9.555357974e-05 6.6373218033e-06
          2.9338154491e-05 7.4351279181e-05 7.5067387115e-06 1.2480921214e-05 7.4522191426e-05 7.7801669249e-06
          4.8044068535e-05 7.767626812e-05 7.6174947026e-06 4.7693825763e-05 9.4627066574e-05 8.2360729721e-06
          7.561982784e-06 8.6760614067e-05 4.568991244e-06 5.1532465477e-06 7.9051780631e-05 3.2509592529e-06
          6.3440318627e-05 1.4919000932e-05 2.31160152e-06 5.6400000176e-05 2.2800000806e-05 2.2599999738e-06
          5.0750553783e-05 1.3376256902e-05 2.5862141229e-06 6.3973973738e-05 1.3441423107e-05 3.1097774809e-06
          5.8764242567e-05 5.3865041991e-06 4.3669160732e-06 5.0722963351e-05 1.2981769942e-05 4.1996204345e-06
          5.1371320296e-05 1.3680012671e-05 4.0621398512e-06 8.0120895291e-05 1.8887323677e-05 4.230696959e-06
          9.3606169685e-05 8.0927147792e-06 4.8542983677e-06 9.2973619758e-05 1.6023008357e-05 4.7524431466e-06
          8.7205473392e-05 3.3995336253e-06 5.9372837313e-06 5.4427135183e-05 1.6983873138e-05 5.5283117035e-06
          8.0421974417e-05 1.8143804482e-05 5.9331205193e-06 5.8243997046e-05 5.7083966567e-06 6.0267898334e-06
          7.165846182e-05 1.2401957065e-05 6.2562194216e-06 7.0178655733e-05 1.2983458873e-05 6.0294673858e-06
          9.3026959803e-05 1.6068022887e-05 6.3183756538e-06 9.3582319096e-05 1.7703936464e-05 6.1987907429e-06
          8.0969228293e-05 1.9645647626e-05 6.1053419813e-06 9.3593575002e-05 7.1279782787e-06 6.5190170062e-06
          5.5136431911e-05 1.7965694497e-05 6.8631247814e-06 8.7613960204e-05 3.7155009522e-06 7.4549298006e-06
          9.3100003141e-05 2.3900000087e-05 7.4300000961e-06 5.0423041102e-05 1.3218656932e-05 3.3607582282e-06
          5.3177671361e-05 4.8686091759e-05 1.4115196336e-06 5.7233064581e-05 3.8487876736e-05 2.4781732009e-06
          5.2722491091e-05 4.8531244829e-05 2.2169115255e-06 5.378314745e-05 4.899560372e-05 2.9228867788e-06
          5.3526946431e-05 4.8155477998e-05 3.144553375e-06 5.779037383e-05 3.8513186155e-05 4.1939929361e-06
          7.2800001362e-05 4.9700000091e-05 5.4199999795e-06 8.743070066e-05 4.9633144954e-05 5.6263747865e-06
          8.8343404059e-05 2.5169319997e-05 7.7911699918e-06 8.8838714873e-05 2.6579769838e-05 8.3680097305e-06
          5.2695144404e-05 4.8345882533e-05 3.0962655728e-06 7.3879891715e-05 7.3251969297e-05 8.8784918262e-07
          5.2132549172e-05 5.3325744375e-05 1.8504268837e-06 7.3973576946e-05 7.3449693446e-05 1.7811316866e-06
          9.2466711067e-05 5.3538657085e-05 2.0027939627e-06 5.2900635637e-05 5.3885927628e-05 3.2870607356e-06
          9.3096881756e-05 5.4410946177e-05 3.188690016e-06 7.9438024841e-05 7.0135938586e-05 3.4967918054e-06
          7.4399998994e-05 7.1700000262e-05 3.7800000428e-06 5.2789448091e-05 5.2941024478e-05 4.6052768994e-06
          7.6933443779e-05 5.5696935306e-05 5.1982301557e-06 7.9152436228e-05 6.9909256126e-05 4.5028627937e-06
          7.5038842624e-05 5.7500652474e-05 5.1827087191e-06 7.596584328e-05 5.7563047449e-05 5.174177204e-06
          8.795139729e-05 5.1115875976e-05 6.2327762862e-06 7.6510972576e-05 5.7436005591e-05 6.1607433963e-06
          7.5741023466e-05 5.7807810663e-05 6.4451855906e-06 7.9899997218e-05 6.6799999331e-05 7.1700001172e-06
          7.9269462731e-05 7.0703725214e-05 4.1570883695e-06 7.8949102317e-05 7.0428475738e-05 5.1690426517e-06
          7.4806899647e-05 7.3858929682e-05 9.8347641142e-07 7.6459386037e-05 5.7009496231e-05 4.4891944526e-06
          7.5268661021e-05 5.7553923398e-05 5.7907864175e-06 7.449270197e-05 7.4197159847e-05 1.7296038095e-06
          7.4333620432e-05 8.6237538198e-05 1.4115870499e-06 5.0700000429e-05 7.5800002378e-05 1.5699999949e-06
          7.4880706961e-05 8.4722771135e-05 2.2298513613e-06 9.7764146631e-05 8.7637657998e-05 2.1251601083e-06
          9.7605145129e-05 8.826739213e-05 2.7609214612e-06 9.7136435215e-05 8.7575921498e-05 3.1331705941e-06
          9.7472257039e-05 8.7659886049e-05 3.9566939449e-06 8.2209917309e-05 8.9103479695e-05 3.779086228e-06
          7.1800001024e-05 9.4000002719e-05 4.5400001909e-06 8.3355414972e-05 8.8920642156e-05 5.0887829275e-06
          7.0899273851e-05 8.9243643743e-05 5.3797707551e-06 8.5482643044e-05 7.7800235886e-05 6.4284786276e-06
          8.6456202553e-05 7.7559765487e-05 6.4003097577e-06 8.6952073616e-05 7.830762479e-05 6.0117722569e-06
          7.14827911e-05 9.0905268735e-05 6.0593370108e-06 8.6702108092e-05 7.8779114119e-05 6.7893124651e-06
          8.2641709014e-05 8.9271386969e-05 6.5083381742e-06 7.532685413e-05 9.3983486295e-05 6.5077833824e-06
          5.4501455452e-05 9.5202289231e-05 6.7793507696e-06 5.3230956837e-05 9.5579453046e-05 6.7010801104e-06
          6.4105792262e-05 8.9843975729e-05 7.403883501e-06 5.3689665947e-05 9.5880241133e-05 7.4281401794e-06
          5.4564679886e-05 9.5713701739e-05 7.491724773e-06 9.173554281e-05 8.3656566858e-05 8.5650408437e-06
          9.2017762654e-05 8.4855208115e-05 7.716133041e-06 9.2878421128e-05 8.4577761299e-05 7.6317028288e-06
          7.6036682003e-05 9.4966038887e-05 7.8435941759e-06 9.3073860626e-05 8.4386439994e-05 8.5370429588e-06
          6.4093954279e-05 8.8936649263e-05 8.9695495262e-06 9.295574273e-05 8.4815175796e-05 9.4586830528e-06
          9.133725689e-05 8.3348495536e-05 7.0853134275e-06
        </DataArray>
      </Points>
      <Cells>
        <DataArray type="Int64" Name="connectivity" format="ascii" RangeMin="0" RangeMax="194">
          0 1 2 3 4 5
          6 7 8 9 10 11
          12 13 14 15 16 17
          18 19 20 21 22 23
          24 25 26 27 28 29
          30 31 32 33 34 35
          36 37 38 39 40 41
          42 43 44 45 46 47
          48 49 50 51 52 53
          54 55 56 57 58 59
          60 61 62 63 64 65
          66 67 68 69 70 71
          72 73 74 75 76 77
          78 79 80 81 82 83
          84 85 86 87 88 89
          90 91 92 93 94 95
          96 97 98 99 100 101
          102 103 104 105 106 107
          108 109 110 111 112 113
          114 115 116 117 118 119
          120 121 122 123 124 125
          126 127 128 129 130 131
          132 133 134 135 136 137
          138 139 140 141 142 143
          144 145 146 147 148 149
          150 151 152 153 154 155
          156 157 158 159 160 161
          162 163 164 165 166 167
          168 169 170 171 172 173
          174 175 176 177 178 179
          180 181 182 183 184 185
          186 187 188 189 190 191
          192 193 194
        </DataArray>
        <DataArray type="Int64" Name="offsets" format="ascii" RangeMin="1" RangeMax="195">
          1 2 3 4 5 6
          7 8 9 10 11 12
          13 14 15 16 17 18
          19 20 21 22 23 24
          25 26 27 28 29 30
          31 32 33 34 35 36
          37 38 39 40 41 42
          43 44 45 46 47 48
          49 50 51 52 53 54
          55 56 57 58 59 60
          61 62 63 64 65 66
          67 68 69 70 71 72
          73 74 75 76 77 78
          79 80 81 82 83 84
          85 86 87 88 89 90
          91 92 93 94 95 96
          97 98 99 100 101 102
          103 104 105 106 107 108
          109 110 111 112 113 114
          115 116 117 118 119 120
          121 122 123 124 125 126
          127 128 129 130 131 132
          133 134 135 136 137 138
          139 140 141 142 143 144
          145 146 147 148 149 150
          151 152 153 154 155 156
          157 158 159 160 161 162
          163 164 165 166 167 168
          169 170 171 172 173 174
          175 176 177 178 179 180
          181 182 183 184 185 186
          187 188 189 190 191 192
          193 194 195
        </DataArray>
        <DataArray type="UInt8" Name="types" format="ascii" RangeMin="1" RangeMax="1">
          1 1 1 1 1 1
          1 1 1 1 1 1
          1 1 1 1 1 1
          1 1 1 1 1 1
          1 1 1 1 1 1
          1 1 1 1 1 1
          1 1 1 1 1 1
          1 1 1 1 1 1
          1 1 1 1 1 1
          1 1 1 1 1 1
          1 1 1 1 1 1
          1 1 1 1 1 1
          1 1 1 1 1 1
          1 1 1 1 1 1
          1 1 1 1 1 1
          1 1 1 1 1 1
          1 1 1 1 1 1
          1 1 1 1 1 1
          1 1 1 1 1 1
          1 1 1 1 1 1
          1 1 1 1 1 1
          1 1 1 1 1 1
          1 1 1 1 1 1
          1 1 1 1 1 1
          1 1 1 1 1 1
          1 1 1 1 1 1
          1 1 1 1 1 1
          1 1 1 1 1 1
          1 1 1 1 1 1
          1 1 1 1 1 1
          1 1 1 1 1 1
          1 1 1 1 1 1
          1 1 1
        </DataArray>
      </Cells>
    </Piece>
  </UnstructuredGrid>
</VTKFile>
