<?xml version="1.0"?>
<VTKFile type="UnstructuredGrid" version="0.1" byte_order="LittleEndian" header_type="UInt32" compressor="vtkZLibDataCompressor">
  <UnstructuredGrid>
    <Piece NumberOfPoints="178" NumberOfCells="178">
      <PointData>
        <DataArray type="Int32" Name="id" format="ascii" RangeMin="1" RangeMax="178">
          133 75 134 19 59 50
          123 97 49 42 118 131
          15 22 44 3 174 93
          40 1 78 117 54 24
          124 7 119 20 109 62
          106 84 61 137 141 150
          154 161 166 175 176 121
          77 32 51 60 85 81
          105 129 67 18 92 82
          135 14 26 57 12 89
          145 148 151 155 160 167
          177 111 64 34 37 90
          46 101 86 79 35 2
          126 136 69 115 48 120
          72 39 13 99 30 113
          23 96 95 142 149 156
          157 158 168 110 43 127
          56 73 33 6 38 116
          88 47 87 91 17 41
          58 102 10 146 159 169
          173 107 11 66 103 45
          130 36 138 152 162 125
          55 25 80 74 5 4
          132 108 9 76 52 139
          140 147 163 164 68 104
          21 29 65 122 28 8
          94 83 114 63 53 27
          31 128 70 16 112 100
          71 98 143 144 153 165
          170 171 172 178
        </DataArray>
        <DataArray type="Int32" Name="type" format="ascii" RangeMin="1" RangeMax="2">
          2 2 1 1 1 1
          1 1 1 1 1 1
          1 1 1 1 2 1
          1 1 2 1 1 1
          2 1 1 1 2 2
          2 1 2 2 2 1
          2 2 1 2 2 2
          2 1 1 1 1 1
          2 1 2 1 1 1
          2 1 1 1 1 1
          1 2 1 2 1 1
          2 2 2 1 1 1
          1 1 1 2 1 1
          1 2 2 1 1 1
          2 1 1 1 1 2
          1 1 1 2 2 2
          2 2 1 1 1 2
          1 2 1 1 1 1
          1 1 1 1 1 1
          1 1 1 1 2 1
          1 2 1 2 1 1
          1 1 2 1 2 2
          1 1 1 2 1 1
          2 2 1 2 1 2
          1 1 2 2 2 1
          1 1 2 2 1 1
          1 1 2 2 1 1
          1 2 2 1 2 1
          2 1 2 2 1 2
          2 2 2 2
        </DataArray>
        <DataArray type="Float64" Name="diameter" format="ascii" RangeMin="7.9359088712e-07" RangeMax="1.9658106933e-06">
          9.5763543213e-07 8.1630877412e-07 1.5959199797e-06 1.6447805615e-06 1.7065734003e-06 1.6953628254e-06
          1.7278096116e-06 1.8805953297e-06 1.7492633086e-06 1.8221876935e-06 1.7681895128e-06 1.553551884e-06
          1.6419509245e-06 1.7589172911e-06 1.9234203373e-06 1.8601499344e-06 8.760459605e-07 1.9138050964e-06
          1.7771703985e-06 1.6741516643e-06 8.7443761102e-07 1.7586633765e-06 1.8022712738e-06 1.6333373704e-06
          8.4902664825e-07 1.91076623e-06 1.600629204e-06 1.8019127141e-06 9.4538347088e-07 9.1890015457e-07
          9.0207297837e-07 1.6036532698e-06 9.5282363277e-07 9.9925208331e-07 9.7323522262e-07 1.5375326781e-06
          8.6784584735e-07 8.4874519843e-07 1.547375218e-06 8.389646115e-07 8.4760558791e-07 8.9647334786e-07
          8.8149488333e-07 1.850378129e-06 1.8209805322e-06 1.6964655058e-06 1.9437858046e-06 1.632949533e-06
          8.9624732443e-07 1.6369303357e-06 1.0191300195e-06 1.9360743843e-06 1.8002755934e-06 1.6064913176e-06
          1.0088597714e-06 1.6215405207e-06 1.9124519737e-06 1.8447801557e-06 1.6708851508e-06 1.7701075205e-06
          1.5153939589e-06 9.3998787878e-07 1.5502937396e-06 9.2265148606e-07 1.5402181261e-06 1.5458957541e-06
          8.3251882172e-07 9.4706516418e-07 9.215445019e-07 1.798662201e-06 1.8019126474e-06 1.9450084321e-06
          1.8061459855e-06 1.7355405904e-06 1.6057178959e-06 9.1374951725e-07 1.9107662029e-06 1.7192768072e-06
          1.6330528055e-06 1.0209065964e-06 9.7337908022e-07 1.6392941072e-06 1.7505583945e-06 1.6619495398e-06
          9.401228532e-07 1.9188887975e-06 1.8074984145e-06 1.7224258351e-06 1.7916359985e-06 9.0617211301e-07
          1.8297513414e-06 1.7041993061e-06 1.8820783707e-06 9.7434903051e-07 8.8788940789e-07 8.6704662455e-07
          8.7668734844e-07 9.0465540532e-07 1.5451515043e-06 1.6835009489e-06 1.9107662361e-06 1.0116955421e-06
          1.7884010185e-06 8.6245694323e-07 1.7577835352e-06 1.8019126559e-06 1.8307974305e-06 1.6960964883e-06
          1.9658106933e-06 1.865880841e-06 1.6158505729e-06 1.9232166723e-06 1.6060310748e-06 1.8254630937e-06
          1.6708851696e-06 1.6571219983e-06 1.8854580897e-06 1.515393976e-06 9.2555154839e-07 1.5340602882e-06
          1.5254864961e-06 8.8048099982e-07 1.6779716153e-06 9.408149017e-07 1.8490769772e-06 1.8095336141e-06
          1.7265850789e-06 1.5260485498e-06 1.0096419257e-06 1.6433761896e-06 8.714797623e-07 8.6325022416e-07
          1.8495822843e-06 1.6856537226e-06 1.5769289232e-06 1.0392203406e-06 1.8221876855e-06 1.9360744092e-06
          1.0286772312e-06 8.9911225475e-07 1.6033168034e-06 9.5192693743e-07 1.8981121767e-06 9.9801927271e-07
          1.6565328042e-06 1.4970590741e-06 8.8868226487e-07 8.4915736786e-07 1.0291797857e-06 1.7126945751e-06
          1.7462631757e-06 1.8194137312e-06 8.7987579218e-07 9.0617973745e-07 1.8209805238e-06 1.9107662065e-06
          1.9138051073e-06 1.620623093e-06 9.6444746403e-07 9.0107649281e-07 1.7771704075e-06 1.8764824253e-06
          1.742684205e-06 8.6962091522e-07 1.0432218043e-06 1.9360744173e-06 8.8646268274e-07 1.6665374481e-06
          9.4617355691e-07 1.8306554746e-06 9.7404858521e-07 9.1058177207e-07 1.563749509e-06 8.4778904323e-07
          8.4421222527e-07 8.6816538518e-07 8.3503196927e-07 7.9359088712e-07
        </DataArray>
      </PointData>
      <CellData>
      </CellData>
      <Points>
        <DataArray type="Float32" Name="Points" NumberOfComponents="3" format="ascii" RangeMin="9.7690909622e-06" RangeMax="0.00013153438034">
          1.9500079361e-05 2.3353984943e-05 5.1466543027e-07 2.021261389e-05 2.3725051506e-05 1.4188509567e-06
          1.2857519323e-05 1.6971376681e-05 1.7773273839e-06 4.9554023462e-06 8.5438296082e-06 1.9659089503e-06
          4.0733597416e-05 1.5487901692e-05 2.4898090487e-06 1.3356835552e-05 1.5588879251e-05 2.524142019e-06
          4.9443447097e-06 7.6967990026e-06 3.4275178677e-06 4.1289789806e-05 1.5513160179e-05 4.2021902118e-06
          3.1459294405e-05 8.2083897723e-06 5.5388336477e-06 1.7200000002e-05 5.7000002016e-06 6.1699997786e-06
          1.5007550473e-06 9.3332946562e-06 6.3064358073e-06 3.2104348065e-05 9.1012825578e-06 6.7527453211e-06
          2.0213465177e-06 1.0815737369e-05 6.9127195275e-06 1.4600000213e-05 8.9300001491e-06 7.4399999903e-06
          2.5600000299e-05 1.6800000594e-05 7.3599999268e-06 4.6400000429e-05 1.1600000107e-05 7.9499995991e-06
          1.9603827241e-05 2.3155651434e-05 1.3918921695e-06 1.390545458e-05 3.8661248254e-05 1.6269709704e-06
          1.4476606339e-05 4.0287668526e-05 2.2921369691e-06 2.940552622e-05 4.0623275709e-05 3.5396085423e-06
          4.5852524636e-05 4.097189958e-05 3.8655557546e-06 2.9394221201e-05 3.9757382183e-05 5.0337680477e-06
          3.1051091355e-05 4.881703353e-05 4.8933929975e-06 3.9543832827e-05 3.7724883441e-05 5.7346924223e-06
          4.5688444516e-05 4.112114766e-05 5.5076543504e-06 1.7500000467e-05 4.059999992e-05 5.6099997892e-06
          3.171251592e-05 4.9732589105e-05 6.1381156229e-06 4.6527320592e-06 2.9519362215e-05 6.8962986006e-06
          4.5984015742e-06 3.265048872e-05 6.7166506597e-06 4.9574946388e-06 3.3524574974e-05 7.1649196798e-06
          3.6909030314e-05 3.9825383283e-05 7.2669208748e-06 5.9801009229e-06 2.9239361538e-05 7.9235314843e-06
          3.7672914914e-05 4.0145343519e-05 8.6694044512e-06 3.675485641e-05 4.0369093767e-05 8.7824928414e-06
          4.6700392886e-06 3.2788990211e-05 7.6274081948e-06 3.9070469938e-05 3.9035516238e-05 5.0266990002e-06
          5.8140522015e-06 3.3396579965e-05 7.1662448136e-06 3.6698293115e-05 4.041252032e-05 7.877578355e-06
          5.1888391681e-06 2.9656357583e-05 9.2323789431e-06 4.5644577767e-05 4.1429226258e-05 4.5443830459e-06
          4.5221560868e-05 4.087020352e-05 4.8608490033e-06 3.6639641621e-05 6.9543028076e-05 2.2515796445e-06
          3.6542576709e-05 7.0491536462e-05 2.2560318484e-06 3.5306045902e-05 7.2263079346e-05 2.0109218895e-06
          3.7406809952e-06 5.7287314121e-05 3.1500471778e-06 1.5946157873e-05 6.7347697041e-05 3.7046202124e-06
          3.529370224e-05 7.1317590482e-05 3.6424278278e-06 4.0487611841e-06 5.6561806559e-05 4.8558999879e-06
          4.0460940909e-06 7.3118862929e-05 4.2739170567e-06 1.5462068404e-05 6.7647219112e-05 5.2491350289e-06
          4.9389300329e-06 7.350488886e-05 5.3734120229e-06 9.6699995993e-06 5.4100000852e-05 5.8999999055e-06
          2.3127144232e-05 6.5455475124e-05 5.9018971115e-06 9.2767550086e-06 6.7067390773e-05 6.6888405854e-06
          4.4365128815e-06 7.3237926699e-05 6.2024159888e-06 7.3397204687e-06 6.2182763941e-05 6.6476909524e-06
          2.3687214707e-05 6.3904764829e-05 6.7395808401e-06 9.8325335784e-06 6.870454672e-05 6.5690401243e-06
          5.3439612202e-06 7.0665497333e-05 7.7949298429e-06 7.3239266385e-06 6.3476072683e-05 7.897229807e-06
          4.9354753173e-06 7.0349531597e-05 6.2772837737e-06 3.5775265133e-05 6.9837784395e-05 2.15791556e-06
          4.58289378e-06 5.8027631894e-05 5.0239905249e-06 4.0331547098e-06 7.3302275268e-05 5.1500578593e-06
          5.8967666519e-06 6.2749779318e-05 6.4265859692e-06 9.2233658506e-06 6.7022330768e-05 5.1214692576e-06
          3.738410669e-05 7.0433554356e-05 2.2172528134e-06 4.887506293e-05 8.3944905782e-05 7.575691825e-07
          4.9743190175e-05 8.4465093096e-05 8.9474502829e-07 9.124002645e-06 8.3836654085e-05 1.8576876073e-06
          3.8396392483e-05 8.4586383309e-05 1.4124453855e-06 5.2500358834e-06 7.8645818576e-05 2.790660119e-06
          5.8320792959e-06 8.0303252616e-05 3.4685115224e-06 8.6042300609e-06 8.4158251411e-05 3.5160453535e-06
          3.9124839532e-05 8.4643615992e-05 4.4500820877e-06 7.2169232226e-06 8.6379928689e-05 2.8228093925e-06
          4.3299998651e-05 7.6700001955e-05 3.8200000745e-06 3.9995968109e-05 9.128722013e-05 3.8819671317e-06
          3.8441176002e-05 9.1898182291e-05 3.6437249946e-06 7.3573437476e-06 8.6897081928e-05 4.6740251491e-06
          8.2874003056e-06 8.6683234258e-05 4.7696194088e-06 2.4989860322e-05 8.9337452664e-05 4.489265848e-06
          4.5606262574e-05 7.7993892774e-05 5.3175613175e-06 4.6179902711e-05 7.9568140791e-05 5.4980851019e-06
          2.8902011763e-05 7.4480507465e-05 6.0997190303e-06 4.7327397624e-05 7.6684234955e-05 6.2688081925e-06
          2.5429610105e-05 8.9677603683e-05 6.1230725805e-06 1.1939481737e-05 7.6021315181e-05 6.9703496592e-06
          4.7705922043e-05 9.555357974e-05 6.6373218033e-06 2.9313985578e-05 7.4335897807e-05 7.4788326856e-06
          1.2474863979e-05 7.4538962508e-05 7.7711074482e-06 4.8036195949e-05 7.7665368735e-05 7.6026835814e-06
          4.7693825763e-05 9.4627066574e-05 8.2360729721e-06 4.8977901315e-05 8.4157873061e-05 1.6810096213e-06
          2.9790649933e-05 7.4373281677e-05 6.1347191149e-06 4.9567213864e-05 8.4979612438e-05 1.5766623847e-06
          7.0018377301e-06 8.6852953245e-05 3.5249313441e-06 2.8784763344e-05 7.4009025411e-05 6.8462377385e-06
          3.9211354306e-05 8.4591491031e-05 2.8716412999e-06 6.34463795e-05 1.490222985e-05 2.3206607693e-06
          5.6400000176e-05 2.2800000806e-05 2.2599999738e-06 5.0596285291e-05 1.3258016224e-05 3.1321012557e-06
          6.3967920141e-05 1.345819328e-05 3.1007182315e-06 5.1328162954e-05 1.3638441487e-05 4.0629515752e-06
          5.8758363593e-05 5.3901435422e-06 4.3856821321e-06 8.0120895291e-05 1.8887323677e-05 4.230696959e-06
          9.3606038718e-05 8.0826866906e-06 4.8716024139e-06 5.8249879658e-05 5.7047577684e-06 6.0080237745e-06
          9.2999776825e-05 1.6045083612e-05 5.5203590819e-06 5.4435004131e-05 1.6994767066e-05 5.5431228247e-06
          8.0428777437e-05 1.8162487322e-05 5.9352632888e-06 9.3593705969e-05 7.1380059126e-06 6.50171296e-06
          7.164003182e-05 1.2409198462e-05 6.2533958953e-06 9.3582319096e-05 1.7703936464e-05 6.1987907429e-06
          8.7613960204e-05 3.7155009522e-06 7.4549298006e-06 5.5128559325e-05 1.7954800569e-05 6.8483136602e-06
          9.3100003141e-05 2.3900000087e-05 7.4300000961e-06 8.7205473392e-05 3.3995336253e-06 5.9372837313e-06
          5.0694630772e-05 1.3042919818e-05 4.0436889321e-06 8.0962425272e-05 1.9626964786e-05 6.1031996665e-06
          7.0197078458e-05 1.2976217477e-05 6.0322913669e-06 5.3151266911e-05 4.8675741709e-05 1.4643584336e-06
          5.7239241869e-05 3.8488156861e-05 2.4971930088e-06 5.3769901569e-05 4.8981011787e-05 2.9263019314e-06
          5.7784196542e-05 3.8512906031e-05 4.1749731281e-06 7.2800001362e-05 4.9700000091e-05 5.4199999795e-06
          8.7436885224e-05 4.9650749133e-05 5.6335748013e-06 8.8832530309e-05 2.6562165658e-05 8.3608092609e-06
          5.3121260862e-05 4.8280002375e-05 3.072087793e-06 8.8349588623e-05 2.5186925996e-05 7.7983695519e-06
          5.2818366385e-05 4.8519174015e-05 2.236221917e-06 7.3882052675e-05 7.3256444011e-05 9.0722386403e-07
          5.2141422202e-05 5.3332129028e-05 1.867175456e-06 9.2466711067e-05 5.3538657085e-05 2.0027939627e-06
          5.2890558436e-05 5.3868705436e-05 3.2856546568e-06 7.9340730736e-05 7.040122e-05 3.8708976717e-06
          7.4399998994e-05 7.1700000262e-05 3.7800000428e-06 7.6668482507e-05 5.6405900978e-05 4.8424426495e-06
          7.90604754e-05 7.0199646871e-05 4.8050801524e-06 7.5078787631e-05 5.7502649724e-05 5.1821539273e-06
          8.7945212726e-05 5.1098271797e-05 6.2255762714e-06 7.6472133514e-05 5.7445449784e-05 6.1590831137e-06
          7.9899997218e-05 6.6799999331e-05 7.1700001172e-06 7.554347394e-05 5.7671313698e-05 6.1193723013e-06
          5.279072866e-05 5.2952542319e-05 4.5889751163e-06 9.3096881756e-05 5.4410946177e-05 3.188690016e-06
          7.3976079875e-05 7.3451163189e-05 1.7515607169e-06 7.5936150097e-05 5.7537235989e-05 5.1680203796e-06
          7.4650233728e-05 7.4027579103e-05 1.3555094256e-06 7.4339681305e-05 8.6220767116e-05 1.4206462993e-06
          5.0700000429e-05 7.5800002378e-05 1.5699999949e-06 7.4874653365e-05 8.4739542217e-05 2.220792112e-06
          9.7760625067e-05 8.7651489594e-05 2.1391701921e-06 9.7196250863e-05 8.7646447355e-05 3.1233889786e-06
          8.2209917309e-05 8.9103479695e-05 3.779086228e-06 7.1800001024e-05 9.4000002719e-05 4.5400001909e-06
          7.0905458415e-05 8.926125156e-05 5.3869707699e-06 8.3303384599e-05 8.8935747044e-05 5.0934909268e-06
          8.5521649453e-05 7.7791497461e-05 6.4269815994e-06 8.6907988589e-05 7.8289718658e-05 6.076345926e-06
          7.1476606536e-05 9.0887668193e-05 6.052136996e-06 7.5334726716e-05 9.3994378403e-05 6.5225945036e-06
          6.4105668571e-05 8.983394946e-05 7.4211875472e-06 5.3701423894e-05 9.5860370493e-05 7.3997352956e-06
          5.4511867347e-05 9.5478200819e-05 7.1557492447e-06 9.1533569503e-05 8.3513761638e-05 7.788052244e-06
          9.2039357696e-05 8.4831102868e-05 7.7154163591e-06 7.6028809417e-05 9.4955146778e-05 7.8287830547e-06
          9.304046398e-05 8.4450439317e-05 8.5454930741e-06 6.4094085246e-05 8.8946675532e-05 8.95224548e-06
          9.2961679911e-05 8.4791710833e-05 9.4037968665e-06 8.643532783e-05 7.7599790529e-05 6.3867350946e-06
          8.2641956396e-05 8.9271328761e-05 6.5084709604e-06 8.6711923359e-05 7.8757911979e-05 6.7568630584e-06
          9.7563126474e-05 8.8175911515e-05 2.7817607133e-06 5.3241186833e-05 9.5585979579e-05 6.7169767135e-06
          9.2855589173e-05 8.4578648966e-05 7.6946716945e-06 9.7458178061e-05 8.7657361291e-05 3.9193714656e-06
        </DataArray>
      </Points>
      <Cells>
        <DataArray type="Int64" Name="connectivity" format="ascii" RangeMin="0" RangeMax="177">
          0 1 2 3 4 5
          6 7 8 9 10 11
          12 13 14 15 16 17
          18 19 20 21 22 23
          24 25 26 27 28 29
          30 31 32 33 34 35
          36 37 38 39 40 41
          42 43 44 45 46 47
          48 49 50 51 52 53
          54 55 56 57 58 59
          60 61 62 63 64 65
          66 67 68 69 70 71
          72 73 74 75 76 77
          78 79 80 81 82 83
          84 85 86 87 88 89
          90 91 92 93 94 95
          96 97 98 99 100 101
          102 103 104 105 106 107
          108 109 110 111 112 113
          114 115 116 117 118 119
          120 121 122 123 124 125
          126 127 128 129 130 131
          132 133 134 135 136 137
          138 139 140 141 142 143
          144 145 146 147 148 149
          150 151 152 153 154 155
          156 157 158 159 160 161
          162 163 164 165 166 167
          168 169 170 171 172 173
          174 175 176 177
        </DataArray>
        <DataArray type="Int64" Name="offsets" format="ascii" RangeMin="1" RangeMax="178">
          1 2 3 4 5 6
          7 8 9 10 11 12
          13 14 15 16 17 18
          19 20 21 22 23 24
          25 26 27 28 29 30
          31 32 33 34 35 36
          37 38 39 40 41 42
          43 44 45 46 47 48
          49 50 51 52 53 54
          55 56 57 58 59 60
          61 62 63 64 65 66
          67 68 69 70 71 72
          73 74 75 76 77 78
          79 80 81 82 83 84
          85 86 87 88 89 90
          91 92 93 94 95 96
          97 98 99 100 101 102
          103 104 105 106 107 108
          109 110 111 112 113 114
          115 116 117 118 119 120
          121 122 123 124 125 126
          127 128 129 130 131 132
          133 134 135 136 137 138
          139 140 141 142 143 144
          145 146 147 148 149 150
          151 152 153 154 155 156
          157 158 159 160 161 162
          163 164 165 166 167 168
          169 170 171 172 173 174
          175 176 177 178
        </DataArray>
        <DataArray type="UInt8" Name="types" format="ascii" RangeMin="1" RangeMax="1">
          1 1 1 1 1 1
          1 1 1 1 1 1
          1 1 1 1 1 1
          1 1 1 1 1 1
          1 1 1 1 1 1
          1 1 1 1 1 1
          1 1 1 1 1 1
          1 1 1 1 1 1
          1 1 1 1 1 1
          1 1 1 1 1 1
          1 1 1 1 1 1
          1 1 1 1 1 1
          1 1 1 1 1 1
          1 1 1 1 1 1
          1 1 1 1 1 1
          1 1 1 1 1 1
          1 1 1 1 1 1
          1 1 1 1 1 1
          1 1 1 1 1 1
          1 1 1 1 1 1
          1 1 1 1 1 1
          1 1 1 1 1 1
          1 1 1 1 1 1
          1 1 1 1 1 1
          1 1 1 1 1 1
          1 1 1 1 1 1
          1 1 1 1 1 1
          1 1 1 1 1 1
          1 1 1 1 1 1
          1 1 1 1
        </DataArray>
      </Cells>
    </Piece>
  </UnstructuredGrid>
</VTKFile>
