<?xml version="1.0"?>
<VTKFile type="UnstructuredGrid" version="0.1" byte_order="LittleEndian" header_type="UInt32" compressor="vtkZLibDataCompressor">
  <UnstructuredGrid>
    <Piece NumberOfPoints="1648" NumberOfCells="1648">
      <PointData>
        <DataArray type="Int32" Name="id" format="ascii" RangeMin="1" RangeMax="1648">
          792 477 298 1166 133 1051
          791 624 668 19 991 887
          623 206 938 793 529 308
          1167 936 605 50 59 134
          625 385 1380 1114 531 244
          937 1434 626 1047 190 766
          666 343 1168 1050 1113 989
          406 589 669 745 123 845
          241 484 174 990 794 318
          550 49 457 888 97 495
          846 42 324 15 44 22
          131 118 474 3 1048 264
          196 1295 1296 1297 1298 1299
          1300 1378 1379 1430 1432 1433
          1460 530 1488 1490 1541 1574
          1591 1002 1179 203 75 459
          847 844 886 40 276 460
          992 1053 592 748 1052 93
          369 593 430 993 386 994
          842 1170 245 408 1115 627
          1226 1 939 594 671 749
          461 78 889 266 795 407
          1054 890 150 117 628 1055
          532 175 1057 672 54 362
          629 497 797 675 892 711
          24 475 256 798 796 370
          670 891 1056 595 109 286
          533 996 940 225 7 1118
          257 1234 389 673 387 215
          995 674 363 1172 388 1058
          561 207 1119 1109 106 676
          1059 1227 800 1116 1171 124
          119 799 634 677 433 434
          597 371 141 1173 62 534
          1229 1117 562 1122 1120 895
          633 176 432 1121 501 998
          893 941 999 246 848 373
          849 329 596 498 894 535
          1000 258 435 1174 630 20
          84 750 997 267 1060 1175
          713 499 805 804 500 712
          372 1228 802 310 803 632
          1062 1001 1177 898 1176 801
          154 1235 502 1125 208 598
          850 806 478 1061 901 504
          1123 631 1124 436 751 198
          678 220 309 896 536 897
          752 374 188 899 277 161
          1126 462 807 166 1230 344
          808 503 942 1233 1231 61
          390 900 1063 299 1178 679
          137 1232 311 680 1301 1302
          1303 1304 1305 1306 1307 1308
          1309 1310 1311 1312 1313 1372
          1381 1382 1383 1384 1385 1386
          1387 1388 1389 1390 1391 1392
          1393 1169 1431 1435 1436 1437
          1438 1439 1440 1441 1442 1484
          1492 1493 1494 1495 1496 1497
          1498 1499 1489 1491 1542 1543
          1544 1545 1546 1547 1548 1549
          1550 1551 1552 1592 1593 1594
          1595 1596 1597 1598 1599 1600
          1601 313 1245 507 943 1180
          851 809 209 121 635 636
          753 1003 1247 177 391 268
          1181 946 32 505 599 312
          945 944 1236 682 51 754
          537 479 506 1005 411 563
          1248 1065 1004 811 1064 681
          1066 77 1127 947 810 1006
          601 275 538 813 1069 325
          746 755 226 1067 330 812
          85 409 948 1182 600 463
          60 148 314 1237 508 235
          714 105 540 1238 410 315
          1068 1239 756 186 300 852
          539 81 167 1110 1070 1007
          221 950 853 345 854 541
          437 949 547 151 92 1246
          565 67 375 903 907 227
          904 18 1165 1224 57 759
          438 542 902 1240 412 1071
          602 509 824 569 192 160
          216 129 145 135 1072 637
          1129 1128 856 814 1074 364
          82 683 228 1241 905 716
          718 1073 715 855 14 26
          283 883 1244 717 346 951
          464 113 857 480 1562 393
          89 1243 288 269 1008 764
          906 1190 458 348 543 12
          690 1314 1315 1316 1317 1318
          1319 1502 1321 1322 1323 1324
          1373 1394 1395 1396 1397 1398
          1399 1242 1401 1404 1443 1444
          1445 1446 1447 1448 1449 347
          1485 1500 1501 1512 1538 1553
          1554 1555 1556 1557 1558 1559
          1561 1602 1603 1604 1605 1606
          1610 1608 1609 859 908 544
          1009 909 566 511 111 37
          761 1130 317 229 719 316
          210 953 510 860 911 858
          1077 546 247 34 910 816
          638 366 1076 1075 413 222
          1010 545 90 270 1457 640
          481 242 365 862 567 513
          1184 1513 912 955 1250 956
          367 350 1320 1260 168 439
          1185 641 351 603 762 79
          818 1013 392 1186 187 1249
          199 101 1511 817 1079 236
          1011 643 604 331 1251 1012
          1080 1261 514 157 515 2
          126 259 1082 217 142 69
          1187 1402 1014 349 649 278
          332 568 1112 564 230 863
          1083 35 46 560 642 289
          864 394 684 644 1131 271
          958 1252 959 1081 115 1111
          622 155 757 237 149 758
          517 686 822 496 934 86
          440 819 685 1188 1253 960
          1259 483 820 414 287 1085
          72 1133 416 821 482 720
          415 1132 200 721 1254 1084
          1256 182 763 1191 1015 914
          765 691 913 352 1262 961
          39 1255 441 865 1016 645
          1189 136 333 13 384 442
          301 353 1257 687 647 516
          590 48 120 1263 688 23
          158 1405 1258 181 465 204
          646 189 1086 1135 866 211
          549 689 1017 96 341 30
          571 648 1137 99 1136 95
          548 823 962 570 710 1456
          1458 354 304 1325 1326 1327
          1328 1329 1330 1331 1332 1333
          1334 1335 1560 1374 1400 1403
          1450 1451 1452 1453 1454 1455
          1134 1486 1503 1504 1505 1506
          1507 1508 1509 1510 1539 1564
          1565 1566 1567 1568 1569 1570
          1571 1572 952 1563 1183 1611
          1612 1613 1614 1615 1616 1617
          1618 1619 1620 1621 1622 1623
          1648 1607 279 1018 1265 1264
          1192 127 867 789 43 723
          418 466 572 692 1138 56
          417 110 218 355 1139 395
          405 73 476 38 573 1461
          915 722 1193 1140 868 767
          6 1019 1020 650 280 33
          825 869 574 223 575 1267
          965 248 179 47 368 1266
          963 964 41 146 747 305
          159 377 87 91 17 173
          88 265 935 169 116 306
          58 197 243 102 884 1294
          1336 1337 1338 1375 1406 1407
          1408 1409 1459 485 1487 1514
          1573 1624 1625 518 107 1194
          606 724 396 238 916 11
          1141 870 357 1087 693 486
          1021 1142 918 607 290 917
          1143 1195 1088 871 576 1196
          966 334 1144 419 1145 1410
          843 1022 1089 162 1023 1525
          919 1090 420 487 694 768
          191 249 651 608 872 103
          726 138 826 827 1268 212
          1091 770 489 272 551 1517
          467 772 319 45 284 130
          1049 10 36 152 1339 1340
          1341 1342 1462 1463 1464 1465
          1466 1470 1515 1516 1575 1576
          1577 1578 1583 1626 1627 185
          920 742 1281 285 1024 398
          1093 695 725 519 1279 250
          443 652 1197 224 356 790
          696 1025 577 397 1094 609
          1269 25 1026 444 828 967
          1198 55 612 873 335 921
          968 610 163 1270 488 80
          147 874 468 1271 260 611
          922 74 697 988 193 727
          923 1096 1146 378 1027 1028
          1147 1148 5 552 422 1280
          1272 578 1095 423 1029 730
          445 1199 291 969 183 1149
          326 320 4 379 1097 164
          108 654 1151 1203 261 1200
          424 1273 273 653 490 446
          184 1201 591 302 970 520
          613 579 773 132 829 971
          700 831 728 140 614 972
          1030 1274 777 1150 830 231
          1275 832 775 774 1152 342
          9 293 924 336 1153 448
          213 729 76 778 52 447
          698 1276 731 491 1204 1277
          294 779 470 292 1278 699
          521 925 776 973 833 139
          1202 195 492 1205 469 780
          1343 1344 1345 1346 1347 1348
          1349 1350 1376 1411 1412 1413
          1414 1415 1416 66 1467 1468
          1469 1473 1471 1472 1518 1519
          1520 1521 1522 1523 1524 1582
          769 771 1540 1579 1580 1581
          655 1590 1628 1629 1630 1631
          1632 1633 1634 1635 1092 1206
          449 781 743 1209 701 1098
          450 21 1371 376 104 760
          1099 251 734 125 784 709
          875 1154 471 64 1207 429
          1031 65 1283 1282 783 782
          1208 733 29 639 122 656
          974 581 68 281 1284 527
          1210 321 580 667 399 876
          702 262 736 170 239 421
          327 156 975 1211 1212 553
          554 1155 1100 380 1287 657
          400 735 282 451 1285 381
          1286 926 737 877 358 328
          658 1032 1288 703 834 232
          452 927 472 1289 295 878
          1213 1225 28 219 523 582
          1033 979 976 980 738 522
          977 8 929 615 785 1216
          978 338 661 555 583 1214
          178 94 205 705 659 401
          1215 1217 1101 337 382 63
          1037 83 53 255 1038 556
          836 253 618 1036 1290 704
          1039 835 144 114 928 1034
          402 786 454 404 1157 1158
          383 1102 453 1035 359 1103
          983 665 981 660 425 201
          584 234 837 263 617 1291
          1156 194 274 930 1292 663
          839 664 153 31 431 879
          252 585 982 70 1219 787
          403 455 233 1161 1040 931
          473 1041 1218 426 165 172
          706 662 741 1293 708 1222
          27 360 1104 619 1159 171
          707 1162 427 616 296 558
          739 984 1044 240 214 1106
          71 428 361 528 557 100
          1105 586 740 303 1220 788
          1160 838 744 840 881 1223
          112 1221 525 588 98 985
          180 880 885 128 1042 16
          493 621 339 143 932 323
          1043 1107 732 933 1045 1046
          254 559 322 620 882 841
          524 340 987 1163 526 307
          587 986 1108 297 494 202
          456 1164 815 957 1351 1352
          1353 1354 1355 1356 1357 1358
          1359 1360 1361 1362 1363 1364
          1365 1366 1367 1368 1369 1370
          1377 1417 1418 1419 1420 1421
          1422 1423 1424 1425 1426 1427
          1428 1429 1078 1474 1475 1476
          1477 1478 1479 1480 1481 1482
          1483 861 1526 1527 1528 1529
          1530 1531 1532 1533 1534 1535
          1536 1537 954 512 1584 1585
          1586 1587 1588 1589 1636 1637
          1638 1639 1640 1641 1642 1643
          1644 1645 1646 1647
        </DataArray>
        <DataArray type="Int32" Name="type" format="ascii" RangeMin="1" RangeMax="2">
          2 2 2 2 2 2
          2 2 2 1 2 2
          2 2 2 2 2 2
          2 2 2 1 1 1
          2 2 2 2 2 2
          2 2 2 1 2 2
          1 2 2 2 2 2
          2 1 2 1 1 2
          1 2 2 2 2 2
          2 1 1 2 1 1
          2 1 1 1 1 1
          1 1 1 1 1 1
          1 2 2 2 2 2
          2 2 2 1 2 2
          2 2 2 2 2 2
          2 2 2 1 2 2
          2 2 2 1 2 2
          2 2 2 2 2 1
          2 2 1 2 2 2
          1 2 2 2 2 2
          2 1 2 2 2 2
          2 2 2 2 2 2
          2 2 1 1 2 2
          2 2 2 2 1 1
          2 2 2 2 2 2
          1 1 2 2 2 2
          2 2 2 2 2 2
          2 2 2 2 1 2
          2 2 2 2 2 1
          2 2 1 2 2 2
          2 2 2 1 2 2
          2 2 2 2 2 2
          1 2 2 2 2 2
          2 2 2 2 2 2
          2 2 2 2 2 2
          2 2 2 2 2 2
          2 2 2 2 2 2
          2 2 2 2 2 2
          2 2 2 2 2 1
          1 2 2 2 2 2
          2 2 2 2 2 2
          2 2 2 2 2 2
          2 2 2 2 2 2
          2 2 2 2 2 2
          2 2 2 2 2 2
          2 2 2 2 2 2
          2 2 2 2 2 2
          2 2 2 2 2 2
          2 2 2 1 2 2
          2 2 2 2 2 2
          2 2 2 2 2 2
          2 2 2 2 2 2
          2 2 2 2 2 2
          2 2 2 2 2 1
          2 2 2 2 2 2
          2 2 2 2 2 2
          2 2 1 2 2 2
          2 2 2 2 2 1
          2 2 2 2 2 2
          2 2 2 2 2 2
          2 2 2 2 2 2
          2 2 2 2 2 2
          2 2 2 2 2 2
          2 2 2 2 2 2
          2 2 2 2 2 2
          2 2 2 2 2 2
          2 2 1 2 2 2
          2 2 2 2 1 2
          2 2 2 2 2 2
          2 2 2 2 2 2
          2 2 2 2 2 2
          2 1 2 2 2 1
          1 2 2 2 2 2
          1 2 2 2 2 2
          1 2 2 2 2 2
          2 2 2 2 2 2
          2 2 2 1 2 2
          2 1 1 1 2 2
          2 2 2 2 2 2
          2 2 2 1 1 2
          2 2 2 2 2 2
          2 1 1 1 1 2
          2 2 2 2 2 2
          2 2 2 2 1 1
          1 1 1 2 2 2
          2 2 2 2 2 1
          1 2 2 2 2 2
          2 2 2 2 1 1
          1 1 2 2 2 2
          2 2 2 2 2 2
          1 2 2 2 2 2
          2 2 1 2 2 1
          2 2 2 2 2 2
          2 2 2 2 2 2
          1 2 2 2 2 2
          2 2 2 2 2 2
          2 2 2 2 2 2
          1 2 2 2 1 2
          2 2 2 2 2 2
          2 2 2 2 2 2
          2 2 2 2 2 2
          2 2 2 2 2 1
          2 2 2 2 2 2
          2 2 2 2 2 2
          2 2 2 1 2 2
          2 1 2 2 2 2
          2 2 1 2 2 2
          2 1 1 2 2 2
          2 2 2 2 2 2
          1 2 2 2 1 2
          2 2 2 2 2 2
          2 2 2 2 1 2
          2 1 2 2 2 2
          2 2 2 2 2 2
          2 2 2 2 2 1
          1 2 2 1 2 2
          2 2 2 2 2 2
          2 2 1 2 2 2
          2 1 1 1 2 2
          2 2 2 2 2 2
          2 2 2 2 1 1
          1 2 2 2 2 2
          2 2 2 1 1 1
          2 2 2 2 2 2
          2 2 2 2 2 2
          2 2 2 2 2 2
          2 2 2 2 2 2
          2 2 2 2 2 2
          2 2 2 2 2 2
          1 2 2 2 2 2
          2 2 2 1 1 2
          2 2 2 2 2 2
          1 1 1 2 2 1
          2 2 2 2 2 1
          2 2 2 2 2 2
          2 2 2 1 1 1
          2 2 2 1 2 1
          2 2 2 2 1 2
          2 2 1 2 2 2
          2 2 2 2 2 2
          2 2 2 1 2 2
          2 2 2 2 2 2
          2 1 2 2 2 2
          2 2 2 2 1 2
          2 2 2 2 2 2
          2 2 2 2 2 2
          2 2 2 2 2 2
          2 2 2 2 2 2
          2 2 2 2 2 2
          2 2 2 1 1 2
          2 2 2 2 2 1
          2 1 1 2 2 2
          1 2 1 1 2 2
          2 2 2 2 2 2
          1 2 2 2 2 1
          2 2 2 2 2 2
          2 2 1 1 1 2
          2 2 1 1 1 1
          2 2 1 1 1 1
          1 1 1 1 1 1
          1 1 1 1 1 1
          2 2 2 1 2 2
          2 2 2 2 1 2
          2 2 2 2 2 2
          2 2 2 2 2 1
          2 2 2 2 2 2
          2 2 2 2 2 2
          2 2 2 2 2 2
          2 2 2 2 2 2
          1 2 2 2 2 2
          2 2 2 2 2 2
          2 2 2 2 2 1
          2 2 2 2 2 2
          2 2 2 2 2 2
          2 2 2 1 1 1
          1 1 1 1 2 2
          2 2 2 2 2 2
          2 2 2 2 2 2
          2 2 2 2 2 2
          2 2 2 1 2 2
          2 2 2 2 2 2
          2 2 2 1 2 1
          2 2 2 2 2 2
          2 1 2 2 2 2
          2 1 2 2 2 2
          2 2 2 2 2 1
          1 2 2 2 2 2
          2 2 2 1 1 2
          2 2 2 2 2 2
          2 2 1 2 2 2
          2 2 2 2 2 2
          2 2 2 2 2 2
          1 2 1 2 2 2
          2 2 2 2 2 2
          2 2 2 2 2 2
          2 2 1 2 2 2
          2 2 2 2 2 2
          2 2 2 1 2 2
          2 2 2 2 2 2
          2 2 2 2 2 1
          1 2 2 2 2 2
          2 2 2 2 1 2
          2 2 2 2 2 2
          2 2 2 2 2 2
          2 2 2 2 2 2
          2 2 2 2 2 2
          2 2 2 2 2 2
          2 2 1 2 2 2
          2 2 2 2 2 2
          2 2 2 2 2 2
          2 2 2 2 2 2
          2 2 1 2 2 2
          2 1 2 2 2 2
          2 2 2 2 2 2
          2 2 2 2 2 2
          2 1 2 2 1 2
          2 2 2 2 2 2
          2 2 2 2 2 2
          2 2 2 2 2 2
          2 2 1 2 2 2
          2 2 2 2 2 1
          2 2 2 1 2 2
          2 2 2 2 2 2
          1 2 2 2 2 2
          2 2 2 2 2 2
          2 2 2 2 2 2
          2 2 2 2 2 1
          2 2 2 2 2 2
          2 2 2 2 2 2
          2 1 1 1 2 2
          2 2 2 2 2 2
          2 1 2 2 2 2
          2 2 2 2 2 2
          2 1 1 2 2 2
          2 2 2 2 2 2
          2 1 1 1 2 2
          2 2 2 2 2 2
          2 2 2 2 2 2
          2 2 2 2 2 2
          2 2 2 2 2 2
          2 2 2 2 2 2
          2 2 2 2 2 2
          2 1 2 2 2 2
          2 2 1 1 1 2
          2 2 2 2 2 2
          2 2 2 2 2 2
          2 2 2 2 2 2
          2 2 2 2 2 2
          1 2 2 2 2 2
          2 2 2 2 2 2
          2 2 2 2 2 2
          2 2 2 1 2 1
          2 2 2 2 2 2
          2 2 2 2 2 2
          2 2 2 2 1 2
          2 2 1 2 2 1
          2 2 2 2 2 2
          2 2 2 2 2 2
          2 2 2 2 2 2
          2 2 2 2 2 1
          2 2 2 2 2 2
          2 2 2 2 2 2
          2 2 2 2 2 2
          2 2 2 2 2 2
          2 2 2 2 2 2
          1 2 2 2 2 2
          2 2 2 2 2 2
          2 2 2 2 2 2
          2 2 2 2 2 2
          2 2 2 2 2 2
          2 2 2 2 2 2
          2 2 2 2 2 2
          2 2 2 2 2 2
          2 2 2 2 2 2
          2 2 2 2
        </DataArray>
        <DataArray type="Float64" Name="diameter" format="ascii" RangeMin="7.7540547182e-07" RangeMax="1.965552894e-06">
          8.9546378417e-07 9.0848607399e-07 9.6034221724e-07 8.9852379312e-07 9.7867172376e-07 9.2568717433e-07
          9.6378892794e-07 8.9858880633e-07 9.9802898416e-07 1.6202496495e-06 9.9997868599e-07 8.5940722461e-07
          9.3564786674e-07 8.9074471336e-07 1.0445735534e-06 9.0832918661e-07 9.2900374193e-07 8.4915191366e-07
          9.9188699762e-07 8.6586701729e-07 1.0511055051e-06 1.6500428088e-06 1.7239720749e-06 1.5756689959e-06
          9.9816548307e-07 1.0226387406e-06 8.680751653e-07 9.6465102509e-07 9.9860739715e-07 8.5141713201e-07
          9.8310686333e-07 8.585634889e-07 9.7428065481e-07 1.6517428924e-06 9.0590148217e-07 9.7438217989e-07
          1.6704158414e-06 1.0366145019e-06 8.9577355609e-07 9.6407589514e-07 9.5496528495e-07 1.0346098232e-06
          9.0161097704e-07 1.6274964806e-06 9.7223780584e-07 1.7213778092e-06 1.8012073875e-06 9.3499537989e-07
          1.775215499e-06 1.0517408762e-06 9.8760670326e-07 9.8184930354e-07 8.8627186747e-07 9.2728903106e-07
          9.2631352975e-07 1.7746961892e-06 1.7244621845e-06 1.0126255144e-06 1.9573664502e-06 1.7040335964e-06
          1.0176389195e-06 1.8580173583e-06 1.7648353333e-06 1.6371120049e-06 1.9468768262e-06 1.7006621502e-06
          1.9470795417e-06 1.7920571535e-06 1.7961058059e-06 1.8971556426e-06 1.6295366253e-06 1.8011264295e-06
          1.8785538339e-06 8.7468220824e-07 9.0705191754e-07 9.0225185106e-07 8.7172006504e-07 9.5404600248e-07
          8.9486354419e-07 9.1368582009e-07 8.4979553848e-07 1.5992434082e-06 9.1268636475e-07 8.6885555747e-07
          8.6630147505e-07 9.8755724909e-07 8.7465707245e-07 8.739481097e-07 8.0426376159e-07 8.645670003e-07
          7.8404057276e-07 1.0398932705e-06 9.4153803928e-07 1.8065643636e-06 8.0057166916e-07 8.4789536414e-07
          9.1084234246e-07 9.0180179356e-07 1.0341062164e-06 1.7183106565e-06 9.2508622461e-07 1.0205846443e-06
          9.8227287704e-07 1.0017790131e-06 1.0387917803e-06 9.293070071e-07 1.0418468141e-06 1.5846552035e-06
          9.5618589243e-07 1.0350031666e-06 1.8147447881e-06 9.6119198693e-07 1.0342400618e-06 9.669835773e-07
          1.5769538203e-06 9.3672414474e-07 9.6630568999e-07 8.4790272831e-07 9.9382439639e-07 1.0213230508e-06
          8.7263570803e-07 1.7452700761e-06 9.9371821581e-07 9.4515337672e-07 8.7996498511e-07 9.2242154238e-07
          1.0307062787e-06 9.1208099586e-07 1.047787006e-06 1.0308309257e-06 8.9270370491e-07 9.3067715072e-07
          9.8087626314e-07 9.1562171854e-07 1.9270025249e-06 1.7842329061e-06 9.0045945801e-07 1.0488742854e-06
          7.8617346816e-07 9.6487624204e-07 1.0257831256e-06 9.0220849082e-07 1.8377092778e-06 1.7455457312e-06
          9.8623659481e-07 1.0144641996e-06 9.1847604372e-07 9.4889281914e-07 8.9864293922e-07 9.13959371e-07
          1.6499894594e-06 1.7131905987e-06 9.1692596086e-07 8.7103165277e-07 8.4973194283e-07 1.022749639e-06
          9.186475596e-07 1.0122373722e-06 9.9317162022e-07 9.0649032348e-07 9.2875374849e-07 8.9876936096e-07
          1.04449841e-06 9.4127712661e-07 9.5977794197e-07 9.0868351037e-07 1.9487788325e-06 9.5857416828e-07
          1.0148176002e-06 9.6301196858e-07 8.4945487656e-07 9.8297167265e-07 9.4363358851e-07 1.8501365629e-06
          1.0071709975e-06 9.3418041357e-07 1.7573514304e-06 1.0020108526e-06 9.0245537622e-07 1.0099460514e-06
          8.6370390264e-07 1.0327089598e-06 1.023766978e-06 1.5987315559e-06 9.7649926962e-07 9.0711090158e-07
          1.0322851141e-06 9.1641435386e-07 9.076757503e-07 9.1718450768e-07 9.2836460231e-07 9.9144886468e-07
          1.5767568455e-06 1.044768553e-06 8.3691166375e-07 9.9102902072e-07 8.6105091731e-07 9.1246933467e-07
          8.2184230292e-07 8.9017495993e-07 1.0046539742e-06 9.8131606161e-07 8.9628434383e-07 8.6930590393e-07
          9.518415308e-07 9.93399609e-07 1.0295884277e-06 9.7077286495e-07 1.0258712573e-06 8.0682878694e-07
          9.0365845583e-07 8.8635046486e-07 9.2970406086e-07 9.4898057145e-07 8.6710706062e-07 9.3965481873e-07
          1.0474097255e-06 1.0486070742e-06 8.740313586e-07 8.5815150909e-07 9.0265608986e-07 9.1383473502e-07
          8.6618696854e-07 9.9871750755e-07 8.4076921602e-07 8.9024103121e-07 1.0197700408e-06 9.6495929615e-07
          9.807549289e-07 8.9009129729e-07 1.0349765452e-06 9.432980993e-07 8.8910815377e-07 1.8262355712e-06
          1.5607848415e-06 9.1638987696e-07 9.5847447677e-07 8.9202567854e-07 9.4295405139e-07 8.9927925267e-07
          9.2002501326e-07 9.5897591738e-07 8.8913225778e-07 8.9797090937e-07 9.8592407578e-07 9.3044940388e-07
          8.472499815e-07 9.1616524883e-07 1.0152103231e-06 9.1886413351e-07 8.3102183187e-07 1.0048225423e-06
          1.0464486343e-06 9.6171077304e-07 8.9750513864e-07 8.7305431436e-07 9.0911727042e-07 9.4711875883e-07
          1.0260786208e-06 9.6748338112e-07 8.1232745305e-07 9.8102079314e-07 7.9737703454e-07 1.0166515918e-06
          8.1786654791e-07 8.9042929509e-07 9.2296905851e-07 9.0325164802e-07 1.0116092513e-06 8.3476681239e-07
          1.0156639857e-06 9.8005840626e-07 9.1487950745e-07 9.933699386e-07 7.9857954269e-07 1.0097038575e-06
          9.8101708653e-07 8.3475824873e-07 1.0435010151e-06 9.2118532164e-07 9.4186997362e-07 1.0150283367e-06
          9.7242209405e-07 1.0341126209e-06 9.6801449965e-07 9.9008373172e-07 9.0797155134e-07 9.2355937934e-07
          9.614442042e-07 9.8985553236e-07 8.3412941252e-07 1.9393382904e-06 8.9575877893e-07 9.5692917058e-07
          9.0023503148e-07 1.0435570071e-06 1.0038294588e-06 8.7555124918e-07 8.6508068587e-07 9.0977607176e-07
          8.9673030876e-07 8.6762065886e-07 9.8450921941e-07 8.5794866693e-07 9.242811475e-07 9.855433698e-07
          9.1432860427e-07 9.5828593747e-07 8.3122256415e-07 9.638095297e-07 9.1750497571e-07 8.8929769753e-07
          9.2417632878e-07 9.5353704933e-07 9.2870282542e-07 9.1924233653e-07 9.4607948855e-07 8.9364648381e-07
          9.3720972557e-07 9.1961526987e-07 9.0513879396e-07 8.9284630732e-07 8.7195853505e-07 1.6282610154e-06
          8.9193991202e-07 8.9531220147e-07 8.6473910281e-07 8.6735411425e-07 9.2571695524e-07 9.1604919464e-07
          9.0337318234e-07 8.8398193541e-07 9.0414691278e-07 8.7767074881e-07 8.7905002845e-07 8.8408751129e-07
          9.0554539459e-07 9.926375232e-07 1.6074047258e-06 8.4857191279e-07 8.2923770801e-07 8.2767414394e-07
          9.0877058571e-07 8.1669573384e-07 9.1067012873e-07 8.4661386796e-07 9.079574131e-07 1.5773225618e-06
          8.1816678222e-07 8.1386740703e-07 8.3033296671e-07 9.1577668335e-07 8.9772889821e-07 8.1698911911e-07
          8.8423368119e-07 8.1989355832e-07 8.6837544154e-07 8.4517212846e-07 8.5433245568e-07 8.8090346006e-07
          8.4288040798e-07 8.5059704414e-07 7.9355514786e-07 8.5478692675e-07 8.6385905396e-07 8.350042792e-07
          8.9675265176e-07 8.9151426476e-07 8.442519816e-07 8.7109532825e-07 8.3375972834e-07 8.9569597516e-07
          8.1669763366e-07 8.3959408415e-07 8.7320700455e-07 8.2572930018e-07 8.0750473168e-07 7.8156186695e-07
          8.614465688e-07 9.9462196084e-07 9.69786069e-07 1.034854479e-06 8.1020481074e-07 9.0418058276e-07
          8.1437811144e-07 9.5944421219e-07 9.7610738764e-07 8.0514786284e-07 8.4117846082e-07 9.6346693101e-07
          8.7657094959e-07 1.019798635e-06 8.7314147006e-07 8.4795607362e-07 8.8699180495e-07 9.2799068169e-07
          9.3223168592e-07 8.1716187571e-07 1.8692428957e-06 9.8116765645e-07 1.0058013301e-06 1.0318501052e-06
          1.0310238624e-06 8.2471979286e-07 9.4207251873e-07 9.6700323501e-07 1.793821712e-06 8.4457839771e-07
          1.0456858893e-06 1.0306487156e-06 9.9513796902e-07 9.9711622882e-07 9.9662893605e-07 9.0290044285e-07
          9.5493501584e-07 9.715751215e-07 1.0375655256e-06 1.0488333448e-06 1.0288658272e-06 9.1699288079e-07
          1.0025939074e-06 9.6479798835e-07 1.0022942797e-06 9.9028019674e-07 9.0624817468e-07 1.0238548957e-06
          9.77461733e-07 1.8111737553e-06 9.6071487142e-07 8.9268336745e-07 1.0021343249e-06 1.8286887235e-06
          1.6012871811e-06 9.0899154398e-07 9.4004855467e-07 1.0204150825e-06 1.0029163421e-06 8.6464740332e-07
          1.87940782e-06 1.0001998471e-06 8.854946961e-07 8.8448093295e-07 9.7847391021e-07 1.0229257683e-06
          1.7658155588e-06 9.3009657895e-07 9.4537774739e-07 9.0956459579e-07 9.6254374226e-07 1.0512406376e-06
          8.4408963171e-07 8.8486162277e-07 9.9199579726e-07 9.0764061045e-07 8.9716076375e-07 9.6887597978e-07
          9.5156993337e-07 8.9986348925e-07 9.9450650096e-07 1.6621436113e-06 1.0350011994e-06 8.5720080607e-07
          1.0518391926e-06 1.6930404948e-06 1.9374839417e-06 1.5262622199e-06 9.7850188555e-07 8.9736262841e-07
          8.6172377187e-07 9.4555226877e-07 9.169999971e-07 8.0760988735e-07 8.7445009567e-07 8.7036423077e-07
          8.9780573045e-07 8.6259266983e-07 8.8561395892e-07 1.9429959853e-06 1.7949700728e-06 9.1190725699e-07
          1.002476201e-06 9.4150798299e-07 8.8171647589e-07 1.0172740155e-06 8.7076344222e-07 8.5023069196e-07
          7.9943103102e-07 1.9642233283e-06 1.5493631426e-06 1.7032183876e-06 1.7954659229e-06 9.4524137439e-07
          8.4926338408e-07 1.0087972049e-06 1.0250782303e-06 9.0760803151e-07 9.3281986025e-07 9.62021162e-07
          9.032700239e-07 1.0251201121e-06 8.6655393916e-07 1.0256568616e-06 1.886014408e-06 1.9303681588e-06
          1.8014189516e-06 1.7190078965e-06 1.8992557937e-06 9.7679357786e-07 1.0030461495e-06 9.5828820177e-07
          1.0197778417e-06 9.0910285757e-07 8.2548881992e-07 9.1780793704e-07 9.5276366343e-07 1.7866642401e-06
          1.5581117938e-06 9.6792062879e-07 8.0773735841e-07 9.3756483184e-07 8.3437244383e-07 9.2338465799e-07
          8.7783501769e-07 1.0397293527e-06 1.0205971144e-06 8.9018741287e-07 1.5114406403e-06 1.5739304678e-06
          1.8730878894e-06 1.7333472778e-06 8.6343793558e-07 9.8771263238e-07 8.6160189339e-07 9.981447591e-07
          8.5928394851e-07 9.5706729497e-07 1.0389441743e-06 1.0284258668e-06 8.428647467e-07 9.8107429012e-07
          1.7476461805e-06 8.7841714468e-07 8.4156601207e-07 9.4364098253e-07 9.9889676917e-07 9.7106834605e-07
          9.9187683384e-07 9.7218416041e-07 1.7737937061e-06 9.0081599793e-07 1.0315875334e-06 1.5841910268e-06
          9.5539319214e-07 8.4435109969e-07 9.5501450578e-07 9.1955349553e-07 9.040510498e-07 9.654742835e-07
          9.2367891733e-07 8.6495398204e-07 9.3378208273e-07 9.6170469057e-07 8.6718954946e-07 8.4842522355e-07
          1.6361041442e-06 9.5305817927e-07 8.9586105822e-07 9.1560967271e-07 8.5439377525e-07 9.2817795245e-07
          8.842681354e-07 8.7108390475e-07 8.5808964643e-07 8.6754793855e-07 9.3076506431e-07 9.2270360734e-07
          8.5910251396e-07 8.8722579578e-07 9.2482353705e-07 8.3576701115e-07 8.9500190506e-07 8.5755581208e-07
          1.5907710057e-06 8.5989358034e-07 8.6657834447e-07 8.1355299137e-07 1.4778864636e-06 8.9763914085e-07
          8.8611580947e-07 8.572324462e-07 8.0819905223e-07 8.1039146626e-07 8.1031227253e-07 8.3079620115e-07
          8.1235731546e-07 8.6626717965e-07 8.0938823832e-07 7.8742864033e-07 8.630478868e-07 7.9739077584e-07
          8.3066207131e-07 8.7032978084e-07 8.4043493011e-07 8.4447010047e-07 7.990016143e-07 8.2549019924e-07
          1.007555907e-06 1.0437171185e-06 9.9226717387e-07 1.029977074e-06 1.0296330335e-06 1.796602213e-06
          8.9858504935e-07 1.0018494543e-06 8.5402145085e-07 9.1508731091e-07 8.7223041307e-07 8.9460186408e-07
          8.9647456942e-07 9.6357946536e-07 8.8104404659e-07 9.2891353896e-07 8.3462062237e-07 8.2493055667e-07
          9.924869644e-07 9.9260714571e-07 8.8077015506e-07 1.7758385401e-06 1.0198390742e-06 9.0057749453e-07
          9.3794095131e-07 1.8024077967e-06 9.9512649563e-07 1.0305858785e-06 9.9341003322e-07 9.9791406489e-07
          9.4621900426e-07 9.7053813496e-07 1.8805899175e-06 9.0028568916e-07 8.7446579963e-07 9.7229995319e-07
          1.0185416999e-06 1.8422024673e-06 1.7882888083e-06 8.9480004986e-07 9.9113119383e-07 8.4265067205e-07
          9.0434523274e-07 8.2917970068e-07 8.6919425445e-07 9.8222733672e-07 8.8459130846e-07 1.012421689e-06
          1.7048141412e-06 9.0649479191e-07 9.6130787733e-07 9.6227442582e-07 1.9365511258e-06 1.0308483806e-06
          9.6655708734e-07 9.59896039e-07 9.5817482343e-07 8.2323010354e-07 1.0379314301e-06 9.6631009215e-07
          9.6294586923e-07 1.0498562412e-06 1.0491955706e-06 9.4439290561e-07 1.6382945463e-06 8.7026956319e-07
          8.9783032504e-07 1.7994068287e-06 8.1083917675e-07 1.0434693111e-06 9.8452567329e-07 8.4970807888e-07
          9.6025220525e-07 9.6145938999e-07 8.5323822054e-07 8.1564803314e-07 8.8105424292e-07 9.2116964971e-07
          1.0206799789e-06 8.670190279e-07 1.0196087791e-06 9.5408629083e-07 9.4394475664e-07 1.6675007405e-06
          1.6103236706e-06 9.4646337289e-07 1.0478614111e-06 1.7998309677e-06 9.2798348895e-07 7.9120762966e-07
          9.3145280448e-07 8.995968768e-07 9.8594456301e-07 9.1674883757e-07 8.9441588483e-07 9.9931308956e-07
          1.0380640541e-06 9.489448361e-07 1.6681793857e-06 9.1689421701e-07 7.9246394237e-07 8.4392556773e-07
          9.3925515746e-07 1.5791208418e-06 1.8799796712e-06 1.6467028599e-06 9.0652193742e-07 9.0698860903e-07
          8.3026387648e-07 9.4108013385e-07 9.019820275e-07 9.4927524176e-07 9.3076384683e-07 9.5635691669e-07
          1.0350818645e-06 9.0072129673e-07 9.9681076989e-07 1.0163665447e-06 1.5913931734e-06 1.6383970433e-06