<?xml version="1.0"?>
<VTKFile type="UnstructuredGrid" version="0.1" byte_order="LittleEndian" header_type="UInt32" compressor="vtkZLibDataCompressor">
  <UnstructuredGrid>
    <Piece NumberOfPoints="92" NumberOfCells="92">
      <PointData>
        <DataArray type="Int32" Name="id" format="ascii" RangeMin="1" RangeMax="92">
          75 50 19 59 42 49
          15 22 44 3 40 1
          78 24 7 54 20 62
          61 84 77 32 51 85
          60 81 67 18 82 26
          14 57 12 89 92 64
          37 34 46 86 79 35
          2 69 48 13 72 39
          23 30 90 43 56 73
          6 33 38 88 87 17
          47 41 58 10 91 66
          11 45 36 68 55 25
          80 5 74 4 9 76
          52 21 29 65 28 8
          83 53 63 27 70 16
          71 31
        </DataArray>
        <DataArray type="Int32" Name="type" format="ascii" RangeMin="1" RangeMax="2">
          2 1 1 1 1 1
          1 1 1 1 1 1
          2 1 1 1 1 2
          2 1 2 1 1 1
          1 1 2 1 1 1
          1 1 1 1 1 2
          1 1 1 1 2 1
          1 2 1 1 2 1
          1 1 1 1 1 2
          1 1 1 1 1 1
          1 1 1 1 1 2
          1 1 1 2 1 1
          1 1 2 1 1 2
          1 1 1 2 1 1
          1 1 2 1 2 1
          2 1
        </DataArray>
        <DataArray type="Float64" Name="diameter" format="ascii" RangeMin="7.5460998574e-07" RangeMax="1.9680066704e-06">
          8.6377429763e-07 1.7540929161e-06 1.7968756656e-06 1.9145282376e-06 1.5401791542e-06 1.7647886086e-06
          1.8182670409e-06 1.486700712e-06 1.6257446616e-06 1.5722662194e-06 1.9680066666e-06 1.8289627345e-06
          9.172019542e-07 1.6899187896e-06 1.6150489686e-06 1.8182670468e-06 1.5230420123e-06 9.8794030026e-07
          9.9508464409e-07 1.6783489678e-06 9.4322903485e-07 1.5640067655e-06 1.539158853e-06 1.6429583273e-06
          1.7754842903e-06 1.6961092658e-06 9.9588226031e-07 1.6364403439e-06 1.679157355e-06 1.6164738123e-06
          1.6846404438e-06 1.559275146e-06 1.7006144746e-06 1.4961591617e-06 1.5216582648e-06 9.8018648282e-07
          1.523042002e-06 1.8824411688e-06 1.5266201618e-06 1.6783489561e-06 7.5460998574e-07 1.615048963e-06
          1.7861799769e-06 8.4113739631e-07 1.8182670393e-06 1.8396584232e-06 9.6982838787e-07 1.9359196131e-06
          1.8931368629e-06 1.9573109931e-06 1.6439917511e-06 1.6150489695e-06 1.8503541081e-06 9.0221825706e-07
          1.5230420048e-06 1.8396584226e-06 1.5474564311e-06 1.6615745573e-06 1.6783489587e-06 1.6685274141e-06
          1.8824411766e-06 1.5429476575e-06 1.7006144778e-06 1.5936575952e-06 1.6255725273e-06 9.943821912e-07
          1.8824411742e-06 1.5294834659e-06 1.6899187958e-06 9.0860138298e-07 1.5633341177e-06 1.7006144759e-06
          1.7227497208e-06 1.5401791526e-06 8.8102271242e-07 1.6364403484e-06 1.7754842944e-06 9.9417040765e-07
          1.6043532848e-06 1.4760050173e-06 1.8824411628e-06 9.2929091721e-07 1.5391588493e-06 1.6150489605e-06
          1.6961092628e-06 1.9680066704e-06 9.758989468e-07 1.893136862e-06 9.0491304077e-07 1.63644035e-06
          9.849245372e-07 1.9038325613e-06
        </DataArray>
      </PointData>
      <CellData>
      </CellData>
      <Points>
        <DataArray type="Float32" Name="Points" NumberOfComponents="3" format="ascii" RangeMin="9.888468375e-06" RangeMax="0.00013124058025">
          1.9700000848e-05 2.3399999918e-05 9.4000000672e-07 1.3099999705e-05 1.6300000425e-05 2.140000106e-06
          4.9499999477e-06 8.130000424e-06 2.6800000796e-06 4.0999999328e-05 1.549999979e-05 3.310000011e-06
          1.7200000002e-05 5.7000002016e-06 6.1699997786e-06 3.1799998396e-05 8.6800000645e-06 6.1800001276e-06
          1.7700000399e-06 1.0099999599e-05 6.6200000219e-06 1.4600000213e-05 8.9300001491e-06 7.4399999903e-06
          2.5600000299e-05 1.6800000594e-05 7.3599999268e-06 4.6400000429e-05 1.1600000107e-05 7.9499995991e-06
          1.4199999896e-05 3.949999882e-05 1.9700000848e-06 2.940000013e-05 4.0200000512e-05 4.269999863e-06
          4.5600001613e-05 4.110000009e-05 4.6999998631e-06 3.9300000935e-05 3.8400001358e-05 5.3700000535e-06
          1.7500000467e-05 4.059999992e-05 5.6099997892e-06 3.1399998988e-05 4.9300000683e-05 5.5499999689e-06
          4.8841366151e-06 2.9489288863e-05 7.2338361861e-06 5.0200001169e-06 3.3100001019e-05 7.1700001172e-06
          3.7000001612e-05 4.0200000512e-05 8.1600001067e-06 5.3792846302e-06 2.951177521e-05 8.758272088e-06
          3.6599998566e-05 7.0100002631e-05 2.2199999421e-06 3.5305129131e-05 7.2192888183e-05 2.1320488486e-06
          3.7839256493e-06 5.7289278629e-05 3.2831862882e-06 3.5294619011e-05 7.1387788921e-05 3.5213008687e-06
          1.5699999494e-05 6.7499997385e-05 4.4899998102e-06 4.2795172703e-06 5.7311786804e-05 4.8089882512e-06
          4.380000064e-06 7.3299997894e-05 5.2400000641e-06 9.6699995993e-06 5.4100000852e-05 5.8999999055e-06
          9.292823961e-06 6.7167660745e-05 5.9404910644e-06 2.3644815883e-05 6.4022155129e-05 6.676166322e-06
          6.6469092417e-06 6.2538929342e-05 6.6231618803e-06 9.7892561826e-06 6.8581313826e-05 6.5186395659e-06
          5.1299998631e-06 7.0499998401e-05 7.000000096e-06 7.2767043093e-06 6.3410705479e-05 7.8083630797e-06
          2.3169543056e-05 6.5338084823e-05 5.9653111748e-06 4.9300000683e-05 8.4400002379e-05 1.2299999526e-06
          3.8564136048e-05 8.4589286416e-05 1.7738361748e-06 8.8599999799e-06 8.3999999333e-05 2.7000000955e-06
          5.7826205193e-06 8.0162411905e-05 3.4109111766e-06 3.9059283154e-05 8.4611776401e-05 3.2982723042e-06
          7.1072563514e-06 8.6621112132e-05 3.180804697e-06 4.3299998651e-05 7.6700001955e-05 3.8200000745e-06
          3.9200000174e-05 9.1599998996e-05 3.7600000269e-06 7.8320481407e-06 8.6787935288e-05 4.7228168114e-06
          4.5900000259e-05 7.8800003394e-05 5.4100000852e-06 2.5200000891e-05 8.9499997557e-05 5.2700002016e-06
          2.9200000426e-05 7.4299998232e-05 6.6399998104e-06 4.7699999413e-05 7.7199998486e-05 6.9699999585e-06
          1.2200000128e-05 7.5299998571e-05 7.3599999268e-06 4.7699999413e-05 9.5099996543e-05 7.4200002018e-06
          5.2994951147e-06 7.8786659287e-05 2.8482604648e-06 5.6400000176e-05 2.2800000806e-05 2.2599999738e-06
          6.3699997554e-05 1.4199999896e-05 2.7000000955e-06 5.0800001191e-05 1.3300000319e-05 3.5800001115e-06
          8.0164136307e-05 1.8889288185e-05 4.3638360694e-06 5.8500001614e-05 5.5499999689e-06 5.2099999266e-06
          9.360499098e-05 8.0024638009e-06 5.0100329645e-06 9.3043054221e-05 1.6168318325e-05 5.5707596402e-06
          8.065928705e-05 1.8911776351e-05 5.8882724261e-06 7.0900001447e-05 1.2700000298e-05 6.1400000959e-06
          5.4799998907e-05 1.7500000467e-05 6.2300000536e-06 9.35390417e-05 1.7580701751e-05 6.1483906393e-06
          8.7400003395e-05 3.549999974e-06 6.6600000537e-06 9.3100003141e-05 2.3900000087e-05 7.4300000961e-06
          9.3594753707e-05 7.218229257e-06 6.3632824094e-06 5.3200001275e-05 4.8599998991e-05 2.4500000109e-06
          5.7500001276e-05 3.8499998482e-05 3.2999998894e-06 7.2800001362e-05 4.9700000091e-05 5.4199999795e-06
          8.859999798e-05 2.5900000765e-05 8.0899999375e-06 7.4299998232e-05 7.3700000939e-05 1.3400000398e-06
          5.2257477364e-05 5.3388986998e-05 2.1333357836e-06 9.2800000857e-05 5.4000000091e-05 2.6299999263e-06
          5.2765994042e-05 5.3412080888e-05 3.6989235923e-06 7.4399998994e-05 7.1700000262e-05 3.7800000428e-06
          7.9199999163e-05 7.0299996878e-05 4.3400000322e-06 7.6600001194e-05 5.6500000937e-05 4.8699998842e-06
          8.7699998403e-05 5.0400001783e-05 5.9399999373e-06 7.5800002378e-05 5.7500001276e-05 5.6499998209e-06
          7.9899997218e-05 6.6799999331e-05 7.1700001172e-06 5.0700000429e-05 7.5800002378e-05 1.5699999949e-06
          7.4600000517e-05 8.5500003479e-05 1.8099999579e-06 9.7500000265e-05 8.7799999164e-05 3.0000001061e-06
          8.2363927504e-05 8.9089277026e-05 4.0531863306e-06 7.1800001024e-05 9.4000002719e-05 4.5400001909e-06
          8.2859514805e-05 8.9111788839e-05 5.5789882936e-06 7.1199996455e-05 9.0100002126e-05 5.7299998844e-06
          8.6400003056e-05 7.8099998063e-05 6.4199998633e-06 7.5700001616e-05 9.449999925e-05 7.2100001489e-06
          5.4000000091e-05 9.560000035e-05 7.1099998422e-06 9.1599998996e-05 8.3600003563e-05 7.7900003816e-06
          9.2700000096e-05 8.4599996626e-05 8.3699997049e-06 6.41000006e-05 8.9399996796e-05 8.170000001e-06
        </DataArray>
      </Points>
      <Cells>
        <DataArray type="Int64" Name="connectivity" format="ascii" RangeMin="0" RangeMax="91">
          0 1 2 3 4 5
          6 7 8 9 10 11
          12 13 14 15 16 17
          18 19 20 21 22 23
          24 25 26 27 28 29
          30 31 32 33 34 35
          36 37 38 39 40 41
          42 43 44 45 46 47
          48 49 50 51 52 53
          54 55 56 57 58 59
          60 61 62 63 64 65
          66 67 68 69 70 71
          72 73 74 75 76 77
          78 79 80 81 82 83
          84 85 86 87 88 89
          90 91
        </DataArray>
        <DataArray type="Int64" Name="offsets" format="ascii" RangeMin="1" RangeMax="92">
          1 2 3 4 5 6
          7 8 9 10 11 12
          13 14 15 16 17 18
          19 20 21 22 23 24
          25 26 27 28 29 30
          31 32 33 34 35 36
          37 38 39 40 41 42
          43 44 45 46 47 48
          49 50 51 52 53 54
          55 56 57 58 59 60
          61 62 63 64 65 66
          67 68 69 70 71 72
          73 74 75 76 77 78
          79 80 81 82 83 84
          85 86 87 88 89 90
          91 92
        </DataArray>
        <DataArray type="UInt8" Name="types" format="ascii" RangeMin="1" RangeMax="1">
          1 1 1 1 1 1
          1 1 1 1 1 1
          1 1 1 1 1 1
          1 1 1 1 1 1
          1 1 1 1 1 1
          1 1 1 1 1 1
          1 1 1 1 1 1
          1 1 1 1 1 1
          1 1 1 1 1 1
          1 1 1 1 1 1
          1 1 1 1 1 1
          1 1 1 1 1 1
          1 1 1 1 1 1
          1 1 1 1 1 1
          1 1 1 1 1 1
          1 1
        </DataArray>
      </Cells>
    </Piece>
  </UnstructuredGrid>
</VTKFile>
