<?xml version="1.0"?>
<VTKFile type="UnstructuredGrid" version="0.1" byte_order="LittleEndian" header_type="UInt32" compressor="vtkZLibDataCompressor">
  <UnstructuredGrid>
    <Piece NumberOfPoints="1046" NumberOfCells="1046">
      <PointData>
        <DataArray type="Int32" Name="id" format="ascii" RangeMin="1" RangeMax="1046">
          668 298 477 529 794 623
          206 624 793 888 19 59
          134 531 244 385 308 625
          626 938 669 50 666 174
          343 990 589 123 484 241
          845 318 49 457 97 495
          42 324 22 131 15 44
          118 474 3 264 196 991
          846 745 748 766 791 792
          844 550 886 887 936 937
          989 530 75 203 460 40
          276 93 430 245 386 1
          593 627 369 266 594 407
          408 256 78 671 629 150
          117 461 370 670 628 175
          672 54 362 497 475 532
          674 595 286 109 533 675
          711 24 7 257 387 215
          673 124 363 534 225 106
          389 633 119 433 434 371
          388 207 62 561 373 676
          176 432 634 677 141 597
          499 246 372 329 596 562
          535 435 20 84 267 713
          501 154 712 498 310 598
          258 630 436 309 220 500
          502 208 374 277 632 161
          631 198 344 536 61 478
          504 166 678 299 503 188
          137 462 680 679 390 311
          749 750 751 752 795 796
          797 798 799 800 801 802
          803 804 805 806 807 808
          133 1002 842 847 848 849
          850 889 890 891 892 893
          894 895 896 897 898 899
          900 901 459 939 940 941
          942 406 992 993 994 995
          996 997 998 999 1000 1001
          592 313 121 507 636 312
          209 635 32 505 537 506
          411 391 268 682 77 51
          599 479 177 681 226 563
          330 600 601 275 148 314
          410 85 409 508 538 325
          60 235 714 463 105 690
          315 186 540 81 221 539
          67 300 437 227 151 92
          167 129 565 438 345 541
          375 18 57 542 637 458
          907 192 14 160 216 364
          145 135 464 412 715 602
          543 857 569 82 716 480
          346 718 393 26 283 683
          717 269 228 906 113 89
          12 288 348 746 753 754
          755 756 856 759 764 905
          814 809 810 811 812 813
          851 852 853 854 855 883
          902 903 904 943 944 945
          946 947 948 949 950 951
          1003 1004 1005 1006 1007 1008
          547 511 544 566 316 510
          37 317 719 914 210 481
          111 638 229 247 34 270
          366 641 222 413 513 90
          350 512 439 365 567 545
          546 367 640 168 142 603
          331 79 392 187 199 101
          642 349 236 351 643 604
          514 2 259 217 649 684
          332 157 568 126 564 686
          35 46 560 69 440 394
          644 278 483 515 115 622
          287 496 86 482 720 685
          289 271 182 414 758 416
          72 149 415 441 200 721
          645 333 136 691 1017 687
          517 352 39 48 120 646
          13 384 353 516 181 647
          590 23 158 688 211 465
          204 189 549 689 96 341
          30 648 548 570 99 95
          354 230 710 347 304 242
          155 762 763 761 765 815
          816 817 818 819 820 821
          822 823 824 442 858 859
          860 861 862 863 864 865
          866 301 757 908 909 910
          911 912 913 509 571 237
          934 953 954 955 956 957
          958 959 960 961 962 975
          952 1009 1010 1011 1012 1013
          1014 1015 1016 58 127 279
          43 692 418 466 110 723
          56 417 572 218 355 190
          73 405 476 38 573 722
          280 395 6 223 574 33
          575 377 650 248 179 47
          368 159 243 146 305 41
          87 116 91 17 173 88
          265 169 102 306 197 747
          767 789 825 867 868 869
          485 884 915 935 963 964
          965 1018 1019 1020 605 518
          107 238 606 607 357 396
          724 576 486 693 966 725
          11 290 162 334 419 420
          487 191 608 249 66 694
          726 651 488 103 489 272
          138 319 551 467 827 45
          284 130 10 152 36 768
          769 770 771 772 826 843
          870 871 872 916 917 918
          919 1021 1022 1023 695 185
          652 285 398 250 397 655
          25 519 577 443 609 696
          335 163 610 55 74 444
          973 80 147 291 727 193
          468 730 378 612 260 611
          5 552 422 697 326 320
          108 578 423 653 446 183
          140 654 445 424 273 728
          591 4 379 164 613 579
          261 132 490 700 184 342
          302 520 231 729 292 447
          698 9 614 336 448 293
          76 213 294 52 731 491
          492 470 195 699 521 469
          139 224 773 774 775 776
          777 778 779 780 790 828
          829 830 831 832 833 212
          873 874 920 921 922 923
          924 925 967 968 969 970
          971 972 356 988 1024 1025
          1026 1027 1028 1029 1030 701
          449 743 742 21 64 471
          429 104 125 450 580 639
          656 65 251 734 68 281
          709 321 733 29 667 581
          527 156 122 399 702 262
          736 170 735 451 327 553
          380 657 421 282 381 737
          232 554 472 328 658 400
          452 358 522 703 295 28
          219 555 178 8 401 523
          582 337 583 738 94 83
          205 615 114 382 338 661
          53 255 705 556 659 253
          425 704 234 63 274 454
          618 453 359 660 233 201
          144 584 263 402 617 426
          165 706 404 663 664 153
          31 431 252 383 70 585
          403 455 665 616 296 558
          194 172 240 708 741 557
          27 360 619 171 427 473
          739 214 662 71 528 586
          100 740 707 303 322 112
          361 428 98 180 254 128
          16 620 744 339 524 621
          323 143 525 526 588 587
          559 493 494 340 732 307
          297 456 202 781 782 783
          784 785 786 787 788 760
          834 835 836 837 838 839
          840 841 875 876 877 878
          879 880 881 882 885 926
          927 928 929 930 931 932
          933 376 974 987 976 977
          978 979 980 981 982 983
          984 985 986 239 1031 1032
          1033 1034 1035 1036 1037 1038
          1039 1040 1041 1042 1043 1044
          1045 1046
        </DataArray>
        <DataArray type="Int32" Name="type" format="ascii" RangeMin="1" RangeMax="2">
          2 2 2 2 2 2
          2 2 2 2 1 1
          1 2 2 2 2 2
          2 2 2 1 1 2
          2 2 1 1 2 1
          2 2 1 1 1 1
          1 1 1 1 1 1
          1 1 1 1 1 2
          2 1 2 2 2 2
          2 2 2 2 2 2
          2 2 2 1 2 1
          2 1 1 2 2 1
          2 2 2 2 2 2
          2 2 2 2 2 1
          1 2 2 2 2 2
          2 1 1 2 1 2
          2 2 2 2 2 2
          2 1 1 2 2 1
          2 2 1 2 2 2
          2 2 1 2 2 2
          2 2 2 2 2 2
          2 2 2 2 2 2
          2 2 2 2 2 2
          2 2 1 1 2 2
          2 2 2 2 2 2
          2 2 2 2 2 2
          2 2 2 2 2 2
          2 2 2 2 2 2
          2 1 2 2 2 2
          2 2 2 2 2 2
          2 2 2 2 2 2
          2 2 2 2 2 2
          2 2 2 2 2 2
          2 2 1 2 2 2
          2 2 2 2 2 2
          2 2 2 2 2 2
          2 2 2 2 2 2
          2 2 2 2 2 2
          2 2 2 2 2 2
          2 2 2 2 2 2
          2 2 1 2 2 2
          2 2 2 2 2 1
          2 2 2 2 2 2
          2 2 2 1 2 2
          2 1 2 2 2 1
          1 2 2 2 2 2
          2 1 2 1 2 2
          2 2 2 2 1 1
          1 1 2 2 2 2
          2 1 1 2 2 1
          2 1 1 1 1 1
          1 2 2 2 2 2
          2 2 2 1 2 2
          2 2 2 1 1 2
          2 2 2 2 2 1
          1 2 2 1 2 2
          2 2 2 2 2 2
          2 2 2 2 2 2
          2 2 2 2 2 1
          2 2 2 2 2 2
          2 2 2 2 2 2
          2 2 2 2 2 2
          2 2 2 2 2 2
          1 2 2 2 2 2
          2 2 2 2 1 2
          1 2 2 2 2 1
          2 2 2 1 2 2
          2 1 2 1 2 2
          2 2 2 1 2 1
          2 2 2 2 2 2
          2 1 2 1 2 2
          2 2 2 1 2 2
          1 1 1 2 2 2
          2 2 2 2 1 1
          2 1 1 2 2 2
          2 2 2 2 2 2
          2 2 2 2 2 2
          2 2 2 2 2 2
          2 2 1 1 1 2
          1 1 2 2 2 2
          1 1 2 2 2 2
          1 2 2 2 1 1
          1 2 2 2 1 1
          2 2 1 2 1 1
          2 2 2 2 2 2
          2 2 2 2 2 2
          2 2 2 2 2 2
          2 2 2 2 2 2
          2 2 2 2 2 2
          2 2 2 2 2 2
          1 2 2 2 2 2
          2 2 2 2 2 2
          2 2 2 2 2 2
          2 2 2 1 2 2
          1 2 2 2 1 2
          1 2 2 1 2 2
          2 1 1 1 2 2
          2 2 1 2 2 1
          2 2 2 2 1 1
          1 2 1 1 1 1
          1 1 1 1 1 1
          1 1 1 1 1 1
          2 1 2 2 2 2
          2 1 2 1 2 2
          2 2 2 2 2 2
          2 2 2 2 2 2
          2 2 2 2 2 2
          1 2 2 2 2 2
          2 2 2 2 2 2
          2 2 2 1 2 2
          2 2 2 2 2 1
          1 1 1 1 1 2
          2 2 2 2 2 1
          2 2 2 2 2 2
          2 2 2 2 2 2
          2 1 2 2 2 2
          1 2 2 2 2 2
          2 2 2 1 2 2
          2 1 1 2 2 1
          2 2 2 2 2 2
          1 2 2 2 1 2
          2 2 2 2 2 2
          1 2 2 2 2 2
          1 1 2 2 2 2
          2 2 2 2 2 1
          2 2 2 2 2 2
          2 1 2 2 2 2
          2 2 2 1 2 2
          2 2 2 2 2 2
          2 1 2 2 2 2
          2 2 2 2 1 2
          2 2 2 2 2 2
          2 2 2 2 2 2
          2 2 2 2 2 2
          2 2 2 1 2 2
          2 2 2 2 2 2
          2 2 2 1 2 2
          2 1 2 2 2 2
          2 2 2 2 2 2
          2 2 2 1 1 2
          1 2 2 2 2 2
          2 2 2 2 1 2
          2 2 2 2 2 2
          2 2 2 1 2 2
          2 2 2 2 2 1
          1 2 2 1 2 2
          2 2 2 2 1 1
          1 2 2 2 2 2
          1 1 2 2 2 2
          2 2 2 2 2 2
          2 2 2 2 2 2
          2 2 2 2 2 2
          2 2 2 2 2 1
          1 1 2 2 2 2
          2 2 2 2 2 2
          1 2 2 2 2 2
          1 2 2 2 2 2
          2 2 2 2 1 2
          1 2 2 2 2 2
          2 2 1 2 2 2
          1 2 2 2 2 2
          2 2 2 2 2 2
          2 2 2 2 2 1
          2 2 2 2 2 2
          2 2 2 2 2 2
          2 2 2 2 2 2
          2 2 2 2 2 2
          2 2 2 2 1 2
          2 2 2 2 2 2
          2 2 2 2 2 2
          2 2 2 2 2 2
          2 2 2 2 2 2
          2 2 2 2 2 2
          2 2 2 2 2 2
          2 2
        </DataArray>
        <DataArray type="Float64" Name="diameter" format="ascii" RangeMin="7.8558960138e-07" RangeMax="1.964728242e-06">
          1.0052117521e-06 8.0560188132e-07 9.0860590982e-07 9.6807371734e-07 9.6977263211e-07 9.7255651915e-07
          9.5350691065e-07 1.0014582018e-06 9.3997247219e-07 8.4593539549e-07 1.964728242e-06 1.6431107687e-06
          1.9063631871e-06 8.3783954186e-07 9.1191536968e-07 8.578589596e-07 9.1131087828e-07 1.0037733349e-06
          1.0197894894e-06 8.7626098769e-07 1.0192022668e-06 1.5726490878e-06 1.5920665479e-06 8.2846649511e-07
          1.0588369276e-06 8.2377936815e-07 1.5511602734e-06 1.7167234466e-06 8.7906031361e-07 1.6919506756e-06
          9.4140668957e-07 9.4585785736e-07 1.691455703e-06 1.6435778955e-06 1.8655579947e-06 1.6241074717e-06
          1.770868766e-06 1.6820573592e-06 1.6208941705e-06 1.8557535724e-06 1.9613482322e-06 1.8555603644e-06
          1.7080023812e-06 1.7118611302e-06 1.808171305e-06 1.7166462448e-06 1.7904419908e-06 8.3537465318e-07
          8.5055397767e-07 1.6406381795e-06 1.017617196e-06 9.7482052022e-07 9.7245730727e-07 8.9143135908e-07
          9.3127255855e-07 9.5884557569e-07 8.6876187394e-07 9.3640330712e-07 9.1677021982e-07 8.2483447081e-07
          8.6789566254e-07 8.2942130285e-07 1.051906033e-06 1.7218291497e-06 8.5720528214e-07 1.6377149031e-06
          1.0446200497e-06 1.8985021805e-06 1.7296258756e-06 1.0569680728e-06 8.8117978027e-07 1.6634098087e-06
          8.8199406499e-07 8.6959192935e-07 9.8390238137e-07 8.7852178602e-07 1.0100818577e-06 1.034559979e-06
          9.0336196717e-07 9.3897213613e-07 9.3140620512e-07 9.5166318272e-07 1.0475151556e-06 1.8366182498e-06
          1.7005451157e-06 8.7841570919e-07 8.7147376223e-07 1.0606502189e-06 9.7977883383e-07 1.0511651842e-06
          9.4938355757e-07 1.75151324e-06 1.6636725386e-06 8.5753216078e-07 1.632834977e-06 9.0677089398e-07
          9.9992145268e-07 1.0418542806e-06 1.015164587e-06 9.3881247146e-07 8.8334023444e-07 1.0437856037e-06
          9.485897574e-07 1.9510591567e-06 1.8573731745e-06 8.6405439961e-07 9.9855931075e-07 1.7633576263e-06
          1.0213795833e-06 8.4537564065e-07 1.6749244945e-06 9.1161610405e-07 1.0193496589e-06 1.0350686191e-06
          9.5032952422e-07 1.0439392056e-06 1.9119884969e-06 9.645757566e-07 9.6234781671e-07 9.7375709924e-07
          9.7531959737e-07 8.7304781764e-07 1.0266349969e-06 8.9494952085e-07 1.0094228919e-06 1.0371834133e-06
          9.6991729325e-07 1.0054623573e-06 8.9315600828e-07 1.0335709426e-06 1.0174551107e-06 9.0723246702e-07
          8.1064131175e-07 9.0935372554e-07 9.3604484653e-07 8.4903484491e-07 9.0681241249e-07 8.7415333774e-07
          1.0367978749e-06 8.79043882e-07 1.7405776881e-06 1.9156008092e-06 9.4577793913e-07 9.6572634631e-07
          9.0200188232e-07 1.0497182163e-06 9.8209138094e-07 9.8635044498e-07 9.6263133446e-07 8.6317470917e-07
          9.5964362036e-07 8.9889386745e-07 1.0155813808e-06 8.8251740221e-07 9.3112936023e-07 8.3286868407e-07
          9.2773130016e-07 9.1040698866e-07 1.0411223916e-06 1.0318030321e-06 1.0276639723e-06 1.0581405123e-06
          1.0065520394e-06 8.5353505966e-07 9.8766977489e-07 1.0289086291e-06 9.2893762268e-07 9.3265793026e-07
          9.2955257397e-07 1.8483754133e-06 1.0466875387e-06 9.1050249427e-07 8.8716720714e-07 1.0128815327e-06
          9.4195893002e-07 8.4072946309e-07 1.0284316689e-06 9.9425596942e-07 9.9190751353e-07 9.3372175625e-07
          9.7208093323e-07 9.7014143061e-07 9.0273612881e-07 9.8957747726e-07 9.6028784259e-07 9.7133949896e-07
          9.2584023093e-07 9.8581549197e-07 8.831578127e-07 9.7752948708e-07 9.7030330321e-07 8.6194668074e-07
          9.0850412541e-07 9.9414899336e-07 9.5438707304e-07 9.4781712703e-07 9.2155864724e-07 9.5389248929e-07
          1.0160423721e-06 8.7381411031e-07 1.5029882702e-06 9.6742261412e-07 9.0638351703e-07 9.5329839406e-07
          8.9999422402e-07 8.9295613851e-07 9.408041814e-07 8.6267565018e-07 9.2170660611e-07 8.8480887085e-07
          8.6476521403e-07 9.0033768274e-07 9.283156433e-07 8.6180121653e-07 9.1002594027e-07 8.3946892174e-07
          9.4917377453e-07 8.6045751319e-07 9.0089221743e-07 8.4688994243e-07 8.1077159156e-07 8.8640597264e-07
          8.5339331862e-07 9.2432049055e-07 8.3690337467e-07 8.1916967358e-07 8.2332530724e-07 8.5835785066e-07
          7.9459923174e-07 8.1056599809e-07 7.9425547542e-07 8.9684543101e-07 8.3299145668e-07 8.18043685e-07
          8.7269323263e-07 8.4218049103e-07 9.1113120536e-07 8.764800592e-07 9.6883422264e-07 8.7370283632e-07
          8.2650473533e-07 9.6110965665e-07 1.7815678029e-06 1.007531951e-06 8.8541028282e-07 8.4277532071e-07
          8.4404015739e-07 9.6419743409e-07 9.9793531819e-07 1.0136742287e-06 8.1721370925e-07 1.7096841829e-06
          8.5175334323e-07 8.7281288754e-07 9.6530710628e-07 1.0416681816e-06 1.037345125e-06 9.1573637537e-07
          1.0537629458e-06 1.057260609e-06 8.2784027925e-07 1.7262223406e-06 1.0426376757e-06 9.8990678425e-07
          9.3741727799e-07 1.7912559411e-06 1.0419724626e-06 8.1522583025e-07 1.0501605122e-06 1.7429157912e-06
          1.6829916183e-06 8.9044510218e-07 9.6912595083e-07 8.6837293273e-07 9.0766279015e-07 9.9642124061e-07
          9.9757449663e-07 1.891783857e-06 8.421161402e-07 1.950595818e-06 9.184360319e-07 8.9145773625e-07
          7.9870069484e-07 8.7862607629e-07 9.7306516035e-07 9.7289207865e-07 1.8518615762e-06 1.7107786647e-06
          1.8466080726e-06 1.9553509953e-06 1.0579395366e-06 9.516265745e-07 8.9441998728e-07 9.0960623345e-07
          9.4445882874e-07 1.8720932549e-06 1.7112512717e-06 1.0508035318e-06 9.9842765475e-07 1.6905955435e-06
          9.2494172567e-07 1.7975526438e-06 1.9369674557e-06 1.8398260376e-06 1.7169250568e-06 1.7028624048e-06
          1.8101729725e-06 1.0566720802e-06 9.3854606568e-07 1.0572335679e-06 1.0343789296e-06 1.0285062929e-06
          8.7261787679e-07 8.7936023395e-07 1.0563161281e-06 1.9189908803e-06 9.945632482e-07 8.7268726877e-07
          9.0146692631e-07 9.6686972693e-07 9.9102727485e-07 1.9001811097e-06 1.7852324477e-06 9.8597785081e-07
          9.9347044449e-07 9.6944340052e-07 8.9513492547e-07 8.3902815009e-07 8.0958271464e-07 1.6656744681e-06
          1.5098860012e-06 9.6808158332e-07 9.5188453846e-07 1.5261802926e-06 9.8755957533e-07 9.079178087e-07
          9.6728194356e-07 1.0060553207e-06 9.3506966707e-07 9.8991046777e-07 9.7674905362e-07 8.9511154925e-07
          9.3982528863e-07 9.7975055767e-07 9.9374386873e-07 8.8828693724e-07 8.9413880119e-07 9.5581349199e-07
          9.3499743351e-07 9.4909369434e-07 9.4618446955e-07 9.3112798283e-07 9.0906819422e-07 1.6520462407e-06
          8.702023379e-07 8.6297458727e-07 9.0146065901e-07 8.9525324785e-07 9.139539084e-07 8.7300322827e-07
          9.3180084561e-07 8.3849679721e-07 9.066020465e-07 9.0589441335e-07 8.0213154611e-07 8.4433011965e-07
          8.6366631088e-07 8.7874389907e-07 8.4439318556e-07 8.6724822523e-07 9.0139752226e-07 8.4496624456e-07
          8.9929941314e-07 8.714252049e-07 9.1457117966e-07 8.3977694049e-07 8.9967845527e-07 9.349509781e-07
          1.7123342725e-06 9.3727901907e-07 9.3672447735e-07 9.1689471776e-07 9.047998146e-07 8.6172432277e-07
          8.7112763484e-07 1.035266654e-06 1.0511427337e-06 9.9902988139e-07 1.6925444935e-06 9.146891641e-07
          1.7178675424e-06 1.0425970861e-06 1.0611331209e-06 1.0138859384e-06 9.0886346745e-07 1.7923826038e-06
          9.2244630818e-07 9.382302794e-07 8.7213623434e-07 1.704410812e-06 8.4684226749e-07 8.2152157745e-07
          8.4802614595e-07 1.6248514242e-06 9.8502232728e-07 1.8457190257e-06 1.0104291573e-06 8.9543270956e-07
          9.1061043495e-07 9.9798136931e-07 8.9319566042e-07 1.892973728e-06 9.698186996e-07 1.7150073233e-06
          9.1696629114e-07 1.0512953391e-06 9.7397812727e-07 1.0451667174e-06 9.9323754439e-07 8.972568889e-07
          8.7109630146e-07 1.589288169e-06 1.0132113539e-06 1.7154115773e-06 9.7708060227e-07 1.040224439e-06
          8.8636878697e-07 1.0616291222e-06 8.1024587906e-07 1.9507191791e-06 1.0580751014e-06 1.0470494094e-06
          1.8985061206e-06 1.7918009751e-06 1.569465789e-06 9.0662328822e-07 8.7310733282e-07 1.0056518801e-06
          1.0184061035e-06 1.0371993136e-06 8.8374253925e-07 9.9308935477e-07 1.9581745852e-06 1.6688410911e-06
          9.2609024889e-07 1.5556509777e-06 1.9180670147e-06 9.0363574777e-07 9.7842211707e-07 9.9627989019e-07
          1.0237894889e-06 9.8793757445e-07 9.0218419169e-07 9.2624779521e-07 9.6632935969e-07 9.5770642728e-07
          9.7840914425e-07 9.5610378987e-07 9.9396551551e-07 8.7189267742e-07 9.938382544e-07 9.4288839045e-07
          1.0455682985e-06 9.6919931866e-07 1.0067903691e-06 1.030544351e-06 7.8859754687e-07 1.0467285134e-06
          9.2414120838e-07 8.7987194206e-07 1.8554755353e-06 1.7521080388e-06 1.6624400869e-06 8.3674123398e-07
          1.6970260993e-06 1.771435694e-06 9.660565486e-07 8.59997624e-07 9.8137499454e-07 9.0424463161e-07
          1.7243272685e-06 1.6973103108e-06 1.0292081848e-06 1.0416217627e-06 9.8125045102e-07 9.401981979e-07
          1.7815965989e-06 9.1754070928e-07 1.0293838692e-06 1.039884631e-06 1.6070969478e-06 1.7300117109e-06
          1.6190018706e-06 1.00150884e-06 1.0328719827e-06 8.9986212191e-07 1.5301727253e-06 1.8120892585e-06
          9.2187699445e-07 8.9643762744e-07 1.6242923652e-06 9.0689142817e-07 1.7706888003e-06 1.7557956526e-06
          9.0636139717e-07 8.8675014233e-07 9.8253524525e-07 9.6136302759e-07 1.0024729033e-06 9.248278452e-07
          9.9414792425e-07 8.9173375123e-07 9.8582695748e-07 9.7528590002e-07 8.6885145647e-07 9.0183859921e-07
          9.9092951433e-07 9.4472878446e-07 9.441571063e-07 9.9331450205e-07 9.067060893e-07 9.4265454389e-07
          9.7263980201e-07 8.932158883e-07 9.4996393906e-07 8.9730788642e-07 9.2591093723e-07 9.5673889352e-07
          8.9447742209e-07 9.2614609485e-07 9.2492350797e-07 9.0899509873e-07 8.8327563828e-07 8.6284593654e-07
          8.9714935037e-07 9.4494676708e-07 8.5846625794e-07 8.7009980537e-07 9.4449368904e-07 8.7180580753e-07
          1.4781500739e-06 8.1516285817e-07 9.2753306446e-07 8.3915961591e-07 8.6120421918e-07 8.1552259156e-07
          8.8431479213e-07 8.5009902565e-07 8.5685238304e-07 8.3987947019e-07 8.4874268048e-07 8.5586421367e-07
          9.1182367881e-07 8.5267317275e-07 8.0695084608e-07 8.1263217312e-07 7.8558960138e-07 8.9640794775e-07
          8.4257410574e-07 8.1854855751e-07 8.816148008e-07 1.6511168755e-06 8.2546843385e-07 9.7639361839e-07
          1.8476214439e-06 1.0393346199e-06 9.7153437778e-07 1.0031935117e-06 1.6849912629e-06 9.8875371396e-07
          1.6828887358e-06 9.3771017263e-07 1.0390528379e-06 1.7740552183e-06 9.4782079709e-07 1.0053392908e-06
          9.4383335769e-07 1.708067319e-06 1.5813434642e-06 1.6982806714e-06 8.8087952033e-07 9.42947099e-07
          1.0240790918e-06 9.59246919e-07 1.7123343217e-06 8.9828890881e-07 8.7295628333e-07 1.7438226654e-06
          8.1269079119e-07 9.8896443241e-07 9.0552004353e-07 8.7263783162e-07 1.8272718872e-06 1.7964940467e-06
          1.7044108773e-06 8.5468299765e-07 1.6926909906e-06 1.8101730474e-06 1.7717010878e-06 1.7138927645e-06
          1.9301707154e-06 1.5326681275e-06 1.7723008661e-06 1.9184411246e-06 1.8222287693e-06 1.8988967522e-06
          1.7406849015e-06 1.8324703886e-06 1.4721579455e-06 1.7472062189e-06 1.8717649917e-06 1.6769733722e-06
          9.8021553181e-07 1.4960597451e-06 9.6193199524e-07 8.6617451303e-07 9.0991108941e-07 9.5523242441e-07
          9.3276204598e-07 1.5109973082e-06 8.4769096604e-07 1.6589513413e-06 9.248821447e-07 8.1904759852e-07
          8.9135688294e-07 8.6475479143e-07 8.3142252367e-07 8.3047377446e-07 8.7808561229e-07 9.2039413219e-07
          8.5238936154e-07 1.0011692376e-06 1.0227931523e-06 1.0503503555e-06 9.2719282768e-07 8.5916917973e-07
          9.6448567774e-07 8.5157142236e-07 8.8989344209e-07 1.050520134e-06 8.6269812084e-07 1.0370427615e-06
          1.618771238e-06 8.9141974982e-07 1.0384590082e-06 1.0209675134e-06 1.014693536e-06 8.9002724518e-07
          9.130383325e-07 1.0407617619e-06 8.1479047918e-07 1.0265332697e-06 9.2789528153e-07 9.4534536556e-07
          9.3043548263e-07 1.0433246748e-06 9.4333546258e-07 1.7089037305e-06 9.5256844168e-07 9.448085589e-07
          9.750982381e-07 1.0528158751e-06 9.6550811127e-07 9.4199277473e-07 9.070246728e-07 1.8109306762e-06
          1.7951697693e-06 1.6848867751e-06 1.8733604531e-06 1.9630507643e-06 1.8229002312e-06 1.0137704867e-06
          9.1741220579e-07 9.6481163366e-07 9.8680734088e-07 9.3214320276e-07 9.0624528573e-07 1.5619626395e-06
          9.0199730952e-07 9.0568275484e-07 8.6917720466e-07 9.4089078193e-07 8.3207607611e-07 9.0898576474e-07
          8.5611975984e-07 8.3436574194e-07 7.9645252179e-07 8.7712925175e-07 9.4601557459e-07 8.6734447732e-07
          1.0454620182e-06 1.6640486098e-06 1.0486349191e-06 7.8811404052e-07 1.0163926573e-06 9.8375382243e-07
          1.638180036e-06 8.7559324937e-07 1.0085095953e-06 1.0490073389e-06 8.9039412028e-07 9.371306166e-07
          8.6417711758e-07 9.0267844171e-07 9.9581215686e-07 1.8347929093e-06 8.0187526497e-07 8.6935129445e-07
          8.6723690967e-07 1.8836779376e-06 1.7882715933e-06 8.7938563667e-07 9.6812547388e-07 1.7784974312e-06
          8.8605671288e-07 9.9785877056e-07 1.0282721988e-06 8.221861681e-07 9.0921824679e-07 1.009221477e-06
          1.7712698323e-06 9.1842529672e-07 9.2853430709e-07 9.8168376111e-07 1.6816126173e-06 9.9709445249e-07
          1.0456465431e-06 9.2715789126e-07 8.7817737791e-07 1.03169633e-06 1.0266826982e-06 1.0386363486e-06
          1.6001463509e-06 1.0490136737e-06 9.7208467961e-07 9.7271339424e-07 1.0141614548e-06 1.0171822121e-06
          1.5860584098e-06 1.8893167907e-06 8.4240419883e-07 1.0222915333e-06 1.0298606204e-06 1.0581688505e-06
          9.2365954977e-07 9.9585216274e-07 8.4019620144e-07 9.5789330523e-07 9.5216283385e-07 1.6083197713e-06
          9.030752716e-07 8.2558393377e-07 9.8889454872e-07 9.8462418438e-07 9.488610205e-07 9.1139654259e-07
          1.0286435354e-06 1.9151989084e-06 1.0328002775e-06 8.0751534329e-07 8.9142575705e-07 9.8358593412e-07
          9.6092494329e-07 9.2683211635e-07 9.5538437358e-07 1.8311450971e-06 9.7102978714e-07 9.9529127549e-07
          8.7989933224e-07 9.3111808915e-07 9.9384641333e-07 1.0090390174e-06 9.2213389272e-07 9.0221805808e-07
          9.0114877754e-07 1.7668835274e-06 1.0011388342e-06 8.9738171956e-07 9.7907918289e-07 1.0071632981e-06
          9.3563246363e-07 9.494405216e-07 9.6693697286e-07 1.0071079053e-06 1.5560231444e-06 9.9746857574e-07
          8.950935727e-07 8.9272266349e-07 9.5973734809e-07 9.2730380684e-07 9.6471659359e-07 9.8795814742e-07
          9.5016046894e-07 9.4045187648e-07 9.1917225697e-07 8.8606361635e-07 9.1224595359e-07 8.5651922959e-07
          8.78444879e-07 8.7503747496e-07 8.9430925692e-07 8.8067417227e-07 8.160627792e-07 8.9377895973e-07
          8.9311800332e-07 9.1291887906e-07 9.8110507877e-07 1.5397901139e-06 8.9862091285e-07 8.1523770251e-07
          8.9165464502e-07 8.8438829877e-07 7.9454280562e-07 8.2818815676e-07 9.0947853104e-07 1.0066630459e-06
          9.2315368401e-07 9.3323561302e-07 1.0422297602e-06 1.6198651563e-06 1.0126569213e-06 1.0126965971e-06
          1.0157842057e-06 1.6275514884e-06 9.8231167156e-07 9.5885151016e-07 1.0339748933e-06 8.9569721037e-07
          1.0501201392e-06 9.4076032121e-07 9.8789515912e-07 9.8131947097e-07 9.7946368491e-07 9.8156105758e-07
          1.0086359195e-06 8.9175320887e-07 9.6638776771e-07 1.7592878025e-06 1.6200203643e-06 8.0973682466e-07
          1.6898955013e-06 8.93755541e-07 1.0178066532e-06 9.6846053913e-07 1.007604897e-06 9.8323359134e-07
          9.3858003394e-07 9.7142049083e-07 9.5782759243e-07 9.8439257071e-07 1.6892387415e-06 9.151984444e-07
          1.0352933574e-06 8.7193854764e-07 9.7480908096e-07 9.8439800763e-07 9.6148320787e-07 9.9051781414e-07
          9.3490786041e-07 1.054473409e-06 8.339487083e-07 1.6348055012e-06 1.0017178666e-06 9.9935653253e-07
          8.960505243e-07 1.0159526164e-06 8.337584866e-07 9.9145597739e-07 9.1509183389e-07 1.809296552e-06
          1.76382397e-06 8.6265427855e-07 8.175640893e-07 1.8569525618e-06 9.767465413e-07 9.1335938474e-07
          8.5863564695e-07 8.5193517539e-07 8.7820354893e-07 1.0199676279e-06 1.860327083e-06 1.935871615e-06
          1.7661620102e-06 1.0096890339e-06 1.0145684179e-06 1.0609279568e-06 8.9477530169e-07 8.851596442e-07
          1.7110824756e-06 1.7442389515e-06 1.0578687303e-06 8.5965425975e-07 8.7349273309e-07 8.6385629685e-07
          9.9089972302e-07 1.0167245346e-06 9.7038746003e-07 1.0327198631e-06 8.1928053762e-07 9.092986009e-07
          8.8125704034e-07 8.7747953946e-07 1.0456789864e-06 9.803286415e-07 8.7132713358e-07 9.0142937105e-07
          8.1424744506e-07 8.3910642361e-07 9.6103850353e-07 8.849584461e-07 1.0064480519e-06 9.8047141904e-07
          9.9640125543e-07 9.6695444762e-07 1.0398363583e-06 9.3428949357e-07 9.8183181872e-07 1.8679348431e-06
          1.6361732892e-06 1.6579266978e-06 1.0390538728e-06 9.3701350352e-07 1.0393498833e-06 8.8404186519e-07
          9.5131882021e-07 9.469125574e-07 8.1939535588e-07 1.0335031097e-06 1.0230686891e-06 9.4137429037e-07
          1.7418646759e-06 9.6735408365e-07 1.0005542525e-06 9.878989767e-07 9.0410508143e-07 8.6181277201e-07
          1.8126091302e-06 1.0417735047e-06 1.0596503152e-06 1.0328502258e-06 9.7174975779e-07 9.740688361e-07
          9.2559107786e-07 8.4359585824e-07 1.0403069323e-06 9.0151185116e-07 1.6679760494e-06 8.6976223145e-07
          1.5682149005e-06 1.0064607862e-06 8.0063459304e-07 9.4892498355e-07 1.0142508334e-06 8.1633070154e-07
          1.019102548e-06 1.0144729306e-06 1.6870030368e-06 8.8564905012e-07 9.1229987619e-07 9.4398055511e-07
          1.9205935292e-06 9.8250349487e-07 9.4168410551e-07 8.8597609863e-07 9.7678448171e-07 8.5461784388e-07
          1.0166282378e-06 8.4279344287e-07 1.0514241573e-06 8.2998457973e-07 8.6789015196e-07 8.3993081118e-07
          1.0604004928e-06 9.7685843735e-07 8.6521928031e-07 1.0370495123e-06 1.0227462441e-06 1.7816801231e-06
          9.3510411892e-07 9.3146491772e-07 9.0188522666e-07 9.0062985198e-07 9.7287323245e-07 9.4307250289e-07
          9.3223057189e-07 9.0726023266e-07 9.2830545579e-07 9.6148007986e-07 9.0061313678e-07 9.6786051706e-07
          8.8466862264e-07 8.6810058829e-07 9.7079135771e-07 9.0845469159e-07 8.8659372321e-07 9.4967378299e-07
          8.5602216823e-07 9.7337916365e-07 9.2447975266e-07 9.1022421486e-07 9.512610189e-07 9.2263482301e-07
          9.7522607367e-07 9.4209440255e-07 9.6275658098e-07 8.5917909409e-07 1.5916777928e-06 8.1683170262e-07
          9.4468936931e-07 8.9795678586e-07 9.1822854074e-07 8.4900540488e-07 9.1738780843e-07 8.6974442608e-07
          9.4824705522e-07 9.0773035882e-07 9.1420683836e-07 8.2539183402e-07 8.6804449015e-07 9.1577499397e-07
          8.3178945524e-07 8.8731845972e-07 8.7621342401e-07 8.6355631169e-07 8.7814381553e-07 9.1340211102e-07
          9.0629058616e-07 8.8267186876e-07 8.1672048141e-07 8.5882502824e-07 8.2018629743e-07 8.3229894728e-07
          8.2693556057e-07 8.0781442524e-07 8.481783285e-07 8.5057197279e-07 8.7597285493e-07 8.249241371e-07
          7.9103864624e-07 8.7014107653e-07 7.9680056396e-07 8.8516055155e-07 8.7958754382e-07 8.6079177236e-07
          8.3696926573e-07 8.6205344017e-07
        </DataArray>
      </PointData>
      <CellData>
      </CellData>
      <Points>
        <DataArray type="Float32" Name="Points" NumberOfComponents="3" format="ascii" RangeMin="9.7020691466e-06" RangeMax="0.00013308953236">