<?xml version="1.0"?>
<VTKFile type="UnstructuredGrid" version="0.1" byte_order="LittleEndian" header_type="UInt32" compressor="vtkZLibDataCompressor">
  <UnstructuredGrid>
    <Piece NumberOfPoints="323" NumberOfCells="323">
      <PointData>
        <DataArray type="Int32" Name="id" format="ascii" RangeMin="1" RangeMax="323">
          133 206 75 19 134 174
          244 59 50 123 241 97
          49 42 118 131 15 44
          22 3 196 264 276 298
          308 203 93 40 1 245
          78 150 256 175 54 117
          176 124 24 7 257 215
          109 119 20 207 62 154
          246 106 225 84 141 220
          258 198 208 161 137 166
          188 61 266 267 277 286
          299 309 310 311 209 121
          77 32 177 148 226 235
          51 85 60 105 186 227
          81 259 151 167 129 67
          221 155 18 92 288 192
          160 216 145 135 14 82
          57 189 228 26 158 113
          89 12 268 269 275 237
          283 287 300 312 313 314
          315 210 111 222 37 247
          34 142 90 156 199 168
          229 79 187 236 217 46
          101 157 2 126 35 86
          69 182 115 136 48 200
          72 149 39 120 278 211
          13 99 204 30 23 230
          96 95 242 270 271 289
          181 301 304 316 317 43
          127 110 218 190 56 73
          33 159 223 248 6 38
          179 146 47 87 116 91
          17 173 88 41 169 102
          58 197 243 265 279 280
          305 306 318 107 238 162
          11 66 249 191 138 212
          103 45 130 10 152 36
          272 284 290 319 250 185
          125 55 25 163 239 80
          147 74 260 5 193 108
          132 183 140 4 231 164
          261 184 9 195 76 213
          52 139 224 273 285 291
          292 293 294 302 320 64
          104 68 21 29 251 65
          122 262 170 232 28 178
          219 8 94 83 205 63
          255 233 234 114 53 201
          144 263 165 153 252 70
          171 253 194 240 31 27
          128 172 100 254 180 112
          16 214 71 202 98 143
          274 282 281 295 296 297
          303 307 321 322 323
        </DataArray>
        <DataArray type="Int32" Name="type" format="ascii" RangeMin="1" RangeMax="2">
          2 2 2 1 1 2
          2 1 1 1 1 1
          1 1 1 1 1 1
          1 1 1 1 2 2
          2 1 1 1 1 2
          2 1 2 2 1 1
          2 2 1 1 2 1
          2 1 1 2 2 2
          2 2 2 1 2 2
          2 2 2 2 2 1
          2 2 2 2 2 2
          2 2 2 2 2 2
          2 1 2 2 2 2
          1 1 1 2 1 2
          1 2 1 1 1 2
          2 2 1 1 2 1
          1 1 1 2 1 1
          1 2 2 1 2 2
          1 1 2 2 1 2
          1 2 2 2 2 2
          2 2 2 2 1 2
          1 2 1 2 2 1
          2 2 1 2 1 1
          1 2 1 1 1 1
          2 2 1 2 1 2
          2 2 1 1 2 2
          1 1 1 1 1 2
          1 1 1 2 2 2
          2 2 1 2 2 1
          2 1 1 2 1 2
          1 2 2 2 1 1
          1 1 1 1 1 1
          1 1 1 1 1 1
          1 1 1 1 2 2
          1 1 2 2 2 2
          1 2 2 2 2 2
          1 1 1 1 1 1
          2 1 2 2 2 2
          2 1 1 2 2 1
          1 2 2 1 1 2
          2 2 1 1 2 2
          2 2 1 2 2 2
          1 2 1 2 1 2
          2 2 2 2 2 2
          1 2 1 1 2 2
          2 2 2 2 1 2
          1 1 1 1 1 2
          1 2 2 2 1 2
          2 2 2 1 2 2
          2 2 1 2 1 1
          2 2 1 2 2 2
          1 2 2 2 1 2
          2 2 2 2 2 2
          2 1 2 2 2
        </DataArray>
        <DataArray type="Float64" Name="diameter" format="ascii" RangeMin="8.0390675992e-07" RangeMax="1.9677708912e-06">
          8.9401637088e-07 8.8642266523e-07 9.1553404967e-07 1.7761898458e-06 1.7234255721e-06 9.7312459185e-07
          1.0206721944e-06 1.8429196099e-06 1.8308133784e-06 1.8658524832e-06 1.5295884359e-06 1.6865360996e-06
          1.8890202326e-06 1.9677708912e-06 1.9094585269e-06 1.6776725055e-06 1.7731341533e-06 1.6774978367e-06
          1.8994455188e-06 1.6346563042e-06 1.6186283133e-06 1.5519141208e-06 9.4252291711e-07 8.443151015e-07
          8.3400180699e-07 1.5565997132e-06 1.7163189305e-06 1.919156932e-06 1.8079075598e-06 1.0017606054e-06
          9.802480389e-07 1.6603734452e-06 9.0120402854e-07 9.5610394068e-07 1.9462632474e-06 1.8991713126e-06
          1.0132172296e-06 9.8541857341e-07 1.7638324257e-06 1.6791367114e-06 9.3756476689e-07 1.59414304e-06
          8.6926873467e-07 1.7285110491e-06 1.9458760398e-06 1.0118205031e-06 1.0063512519e-06 9.8337095837e-07
          9.9388104879e-07 1.0632888586e-06 9.8374342425e-07 1.7317767185e-06 9.2745828792e-07 8.6637147276e-07
          9.3311069696e-07 1.030455912e-06 8.3888800762e-07 9.9382905837e-07 8.8117358621e-07 1.67100236e-06
          9.0784701748e-07 8.5222712948e-07 9.453865219e-07 9.4040128111e-07 9.695191035e-07 9.2998837208e-07
          8.3588499011e-07 8.5414604845e-07 8.7230946686e-07 8.7079298172e-07 8.5443729962e-07 8.5571314254e-07
          9.681455333e-07 1.6106057542e-06 9.4045858529e-07 8.084611917e-07 9.5082365372e-07 1.0427588057e-06
          1.9664672571e-06 1.6193641906e-06 1.8320041465e-06 8.343092838e-07 1.7102452897e-06 9.713020139e-07
          1.7634135838e-06 9.216862722e-07 1.67415403e-06 1.6694046664e-06 1.7677124361e-06 9.962100491e-07
          1.03126194e-06 8.9490090676e-07 1.6924442203e-06 1.944108119e-06 8.8113109449e-07 1.6250566326e-06
          1.6632734314e-06 1.552166194e-06 1.6364659354e-06 9.3741094825e-07 1.7510930331e-06 1.734841498e-06
          1.5470369099e-06 9.2610449622e-07 1.027010746e-06 1.717836734e-06 1.0329736705e-06 1.0264065808e-06
          1.9115297505e-06 1.8043800526e-06 9.611958207e-07 9.4705718375e-07 1.5605713273e-06 9.8509398088e-07
          1.6139187279e-06 8.4783614779e-07 8.4012566335e-07 8.4501797507e-07 8.6765490804e-07 8.9003151534e-07
          8.9243317298e-07 8.647935909e-07 8.4566294601e-07 1.011777544e-06 1.9458759388e-06 9.596510529e-07
          1.9423658028e-06 9.4439643706e-07 1.6203827504e-06 1.0223394417e-06 1.0365026665e-06 1.6686009509e-06
          1.0537561768e-06 1.0309021941e-06 1.7113210019e-06 9.3844986307e-07 1.5507979849e-06 1.9504475048e-06
          1.874201126e-06 1.0550924544e-06 1.8566379478e-06 1.7635251056e-06 1.7163224936e-06 1.7340062877e-06
          8.8220254785e-07 8.6460729689e-07 1.77026507e-06 9.4431409212e-07 1.8904187616e-06 1.0435551318e-06
          1.0294095872e-06 1.0357485448e-06 1.6774211992e-06 1.7947305362e-06 9.7115487899e-07 9.1462089044e-07
          1.9519080127e-06 1.8600385816e-06 1.6106317821e-06 1.9347782714e-06 1.5344337208e-06 1.036929479e-06
          1.8403558442e-06 1.6381982974e-06 1.5873066953e-06 9.3398540217e-07 9.5749231374e-07 9.2491612041e-07
          9.5292016474e-07 8.4211835992e-07 1.6007706748e-06 8.5259043219e-07 8.7939468328e-07 1.6703207719e-06
          9.4978917972e-07 1.8180037954e-06 1.6038140661e-06 9.4172174416e-07 1.9312848234e-06 9.7310819203e-07
          1.8982211727e-06 1.0342293148e-06 8.7831080541e-07 1.0018920152e-06 1.9458759536e-06 1.53531097e-06
          1.6519240114e-06 1.6364659736e-06 1.6240996338e-06 1.7449484936e-06 1.8316056622e-06 1.6022280852e-06
          1.7343444906e-06 1.6473648247e-06 1.7166756217e-06 1.5494249271e-06 1.656623624e-06 1.7895173149e-06
          1.8043800942e-06 1.6921474768e-06 1.5302576706e-06 1.5736460126e-06 8.9701867105e-07 8.8603063428e-07
          1.6016858488e-06 1.5795415391e-06 8.4268604969e-07 1.0293966194e-06 9.7220310275e-07 1.0206179483e-06
          1.8120327001e-06 1.0545172776e-06 9.6030173862e-07 9.5167973911e-07 8.9018322827e-07 8.8657982531e-07
          1.5449146432e-06 1.9541058187e-06 1.8645301324e-06 1.6935898089e-06 1.7746732965e-06 1.6479718087e-06
          9.1307910022e-07 1.6229024326e-06 8.8858129225e-07 8.3518963371e-07 9.7656739057e-07 9.1925108661e-07
          9.8262097245e-07 1.6587232867e-06 1.8203285686e-06 1.0628213453e-06 9.4794092425e-07 1.7029172264e-06
          1.6166662127e-06 9.2550106335e-07 9.9706527688e-07 1.9677708795e-06 1.6078299863e-06 8.1854016437e-07
          9.3432524248e-07 9.5546248141e-07 1.7888810452e-06 1.7080149489e-06 9.5087516759e-07 1.0021577835e-06
          9.2681087973e-07 9.2800447298e-07 1.7314133781e-06 9.2775682331e-07 8.7856053827e-07 1.0500219071e-06
          1.6554254963e-06 9.0644201796e-07 1.5973305669e-06 9.5503821904e-07 1.5043638699e-06 8.4979150217e-07
          8.8293880474e-07 8.7098975375e-07 8.9653221701e-07 8.9082114688e-07 9.0107342834e-07 9.1250260333e-07
          1.8495298224e-06 9.2012781684e-07 1.8857803867e-06 1.9647752825e-06 9.8465989686e-07 9.9524299587e-07
          1.0145689826e-06 9.0992643504e-07 9.8826692999e-07 1.024937719e-06 1.9664672545e-06 8.6162805539e-07
          1.5945646342e-06 1.6787564817e-06 1.6818071906e-06 1.7501023298e-06 1.5966783453e-06 1.0453865109e-06
          1.5768590412e-06 9.6706714265e-07 9.9433585183e-07 1.0512659401e-06 1.9191569483e-06 9.4830890414e-07
          8.0390675992e-07 9.5325484717e-07 9.6689881942e-07 1.6886848585e-06 9.9986404338e-07 9.8610264835e-07
          9.3897973784e-07 1.0336569033e-06 1.5747125608e-06 9.6911825929e-07 1.8819154889e-06 1.6386682971e-06
          9.5572425541e-07 9.237795749e-07 1.7996850099e-06 1.0224548231e-06 8.3378135884e-07 1.0328346339e-06
          1.7362903043e-06 8.9745159237e-07 1.0560188211e-06 1.0550057683e-06 1.5251155445e-06 9.2131766748e-07
          9.6049301379e-07 9.4032004136e-07 9.2895483374e-07 9.2253520134e-07 8.4128420771e-07 8.8820463452e-07
          9.3186989405e-07 1.6107072672e-06 8.1618979139e-07 9.1488548451e-07 8.117496424e-07
        </DataArray>
      </PointData>
      <CellData>
      </CellData>
      <Points>
        <DataArray type="Float32" Name="Points" NumberOfComponents="3" format="ascii" RangeMin="9.7635858595e-06" RangeMax="0.00013197129178">
          1.924276512e-05 2.3539389076e-05 4.4603078209e-07 1.875658927e-05 2.2886824809e-05 7.7872346083e-07
          2.039404535e-05 2.3768618121e-05 1.1291559758e-06 4.9557947932e-06 8.5739129645e-06 1.9139974938e-06
          1.2839348528e-05 1.7021688109e-05 1.7501497496e-06 2.022573608e-05 2.2870950488e-05 1.7832019239e-06
          1.9284338123e-05 2.3085180146e-05 1.9513120151e-06 4.0633141907e-05 1.5515717678e-05 2.2088454443e-06
          1.3375006347e-05 1.5538567823e-05 2.551319767e-06 4.9439522627e-06 7.6667147368e-06 3.4794295516e-06
          4.1237595724e-05 1.5189251826e-05 3.7603854253e-06 4.1564482672e-05 1.5726389393e-05 5.2234076975e-06
          3.1435683923e-05 8.1757070802e-06 5.4944002841e-06 1.7200000002e-05 5.7000002016e-06 6.1699997786e-06
          1.4760255453e-06 9.2628743005e-06 6.2776357481e-06 3.2127958548e-05 9.1339661594e-06 6.7971786848e-06
          2.0460761334e-06 1.0886157725e-05 6.9415200414e-06 2.5845774871e-05 1.6647931261e-05 6.5758426899e-06
          1.4600000213e-05 8.9300001491e-06 7.4399999903e-06 4.612021803e-05 1.0832196494e-05 7.861953236e-06
          2.5362436645e-05 1.6946987671e-05 8.1179559857e-06 4.6665962145e-05 1.2329885067e-05 8.0336985775e-06
          2.031332042e-05 2.3918162697e-05 2.0214222332e-06 2.0074321583e-05 2.3369279006e-05 4.2048665705e-07
          1.858642463e-05 2.3384338419e-05 1.4381054143e-06 1.3710221538e-05 3.8497411879e-05 9.1739144636e-07
          1.4084562281e-05 3.8641119318e-05 2.4875396321e-06 1.4506884327e-05 4.0402090235e-05 2.2927172267e-06
          2.9405919122e-05 4.0653358155e-05 3.4876968584e-06 4.5408967708e-05 4.0776925744e-05 3.6453288885e-06
          4.6325290896e-05 4.1019618948e-05 3.8978614612e-06 3.9046244638e-05 3.9102596929e-05 4.9904620028e-06
          4.5024844439e-05 4.039777923e-05 4.5708925427e-06 4.6121076593e-05 4.1874114686e-05 4.5614815463e-06
          3.1019608286e-05 4.8773454182e-05 4.8341480579e-06 2.9393828299e-05 3.9727296098e-05 5.0856792768e-06
          4.5010474423e-05 4.1098737711e-05 5.1985043683e-06 4.5960783609e-05 4.1524126573e-05 5.4403349168e-06
          3.9568058128e-05 3.765780275e-05 5.7709294197e-06 1.721263834e-05 3.9811391616e-05 5.5195678215e-06
          4.5622764446e-05 4.0750415792e-05 5.8626133068e-06 1.7773505533e-05 4.1350580432e-05 5.6960716392e-06
          4.6470995585e-06 3.2645864849e-05 5.861513273e-06 3.1743995351e-05 4.9776164815e-05 6.1973605625e-06
          4.6366981223e-06 2.9522878322e-05 6.8848789851e-06 4.7089688451e-06 3.2956864743e-05 6.7412493081e-06
          4.8203860388e-06 3.3958556742e-05 6.6738971327e-06 5.7725314946e-06 3.2954718336e-05 6.9925076787e-06
          6.0913198467e-06 3.3822103433e-05 7.3121827882e-06 3.7301160773e-05 3.9487989852e-05 7.423012903e-06
          3.6530847865e-05 3.9903508878e-05 6.9181064646e-06 6.1308323893e-06 2.9189350244e-05 7.9071605796e-06
          4.3630652726e-06 3.2985295547e-05 7.7268614405e-06 5.5362188505e-06 3.3753301977e-05 7.5321618169e-06
          3.7053385313e-05 4.06024119e-05 7.2854882092e-06 4.9706927712e-06 3.273106995e-05 8.4366793089e-06
          3.8424699596e-05 3.9794736949e-05 8.1288062574e-06 3.6809251469e-05 4.0507457015e-05 8.1957650764e-06
          3.5277429561e-05 4.0635917685e-05 9.0377043307e-06 5.1061679187e-06 2.9698525395e-05 9.1706315288e-06
          3.6884302972e-05 4.0379291022e-05 9.4000433819e-06 3.7960489863e-05 4.0182585508e-05 8.7662319856e-06
          4.5329976274e-05 4.1416984459e-05 4.3553386604e-06 4.0199588511e-06 3.222443047e-05 7.367391845e-06
          3.6188823287e-05 4.0658473154e-05 8.898256965e-06 4.4912608246e-06 3.1812422094e-05 6.0937841226e-06
          3.7133679143e-05 3.9694590669e-05 8.9736549853e-06 4.7689354687e-06 3.3412692574e-05 7.6144692684e-06
          3.7618803617e-05 4.0010087105e-05 8.2197439042e-06 3.8021775254e-05 4.0565613745e-05 9.5168479675e-06
          3.5754776036e-05 6.9932582846e-05 1.741683036e-06 3.6774719774e-05 6.983307685e-05 1.8881862616e-06
          3.6432516936e-05 7.0854199294e-05 1.8599827172e-06 3.5886980186e-05 7.2350143455e-05 1.4578490664e-06
          3.8011119614e-05 7.0537025749e-05 2.3393590709e-06 3.5447610571e-05 6.9748486567e-05 2.747849976e-06
          3.6863872083e-05 6.9496069045e-05 2.7015707929e-06 3.6579556763e-05 7.0432994107e-05 2.7481717098e-06
          3.7406809952e-06 5.7287314121e-05 3.1500471778e-06 3.5031662264e-05 7.06553692e-05 3.1584183944e-06
          1.5969684682e-05 6.7333137849e-05 3.6295564314e-06 4.0911618271e-06 7.312692469e-05 3.6473206819e-06
          3.5337405279e-05 7.1961920185e-05 4.1576308831e-06 4.108648227e-06 7.3555725976e-05 4.3237610043e-06
          4.0215290937e-06 5.6487075199e-05 4.8473302741e-06 4.9880295592e-06 7.3509858339e-05 4.6167906476e-06
          4.6101254156e-06 5.8102363255e-05 5.0325606935e-06 9.2217205747e-06 6.7021770519e-05 5.0614989959e-06
          1.5438539776e-05 6.7661771027e-05 5.3241988098e-06 5.5294922277e-06 7.2949107562e-05 5.1216993597e-06
          4.2018300519e-06 7.2978378739e-05 5.2018363021e-06 3.1661684261e-06 7.35817448e-05 5.6776098063e-06
          1.0077315892e-05 5.4743697547e-05 5.5484151744e-06 2.3116723241e-05 6.551786646e-05 5.8561249716e-06
          4.0198706301e-06 7.3218856414e-05 6.8781796472e-06 9.2781292551e-06 5.3480711358e-05 6.2382532633e-06
          5.8414830164e-06 6.2771505327e-05 6.4181149355e-06 2.429570668e-05 6.350401236e-05 6.4939818003e-06
          4.9201867114e-06 7.0337708166e-05 6.2204821916e-06 4.5296742428e-06 7.2335802543e-05 5.8431860452e-06
          7.3950041042e-06 6.2161037931e-05 6.6561624408e-06 9.2600976132e-06 6.7012842919e-05 6.7695050348e-06
          9.759391105e-06 6.8718654802e-05 5.8040177464e-06 4.4045386858e-06 7.3928153142e-05 6.5279687078e-06
          2.8816753911e-05 7.3471688665e-05 6.6440838964e-06 2.298151594e-05 6.4236606704e-05 7.1440576903e-06
          2.8379248761e-05 7.3987888754e-05 7.3834216892e-06 2.938511534e-05 7.3897710536e-05 7.3638516369e-06
          7.3239266385e-06 6.3476072683e-05 7.897229807e-06 5.3592498261e-06 7.067732804e-05 7.851731425e-06
          3.7184247049e-05 7.0289599535e-05 1.9803744635e-06 4.8714296099e-06 7.3100425652e-05 6.2110352701e-06
          3.474341429e-05 7.2198468843e-05 2.5127428671e-06 2.9827302569e-05 7.390693645e-05 6.3290099206e-06
          9.9480157587e-06 6.8805442424e-05 7.3558417171e-06 4.8389701988e-06 7.3600378528e-05 5.4888919294e-06
          3.3971612083e-06 7.3486371548e-05 4.8574038374e-06 3.5072687751e-05 6.9464622356e-05 1.6422441149e-06
          3.6318684579e-05 6.9171495852e-05 1.6273259007e-06 3.6251654819e-05 6.9690351665e-05 2.5394710974e-06
          3.9384995034e-06 7.2311704571e-05 3.8142100038e-06 4.9451984523e-05 8.3850769443e-05 4.8841832267e-07
          4.8603644245e-05 8.4141109255e-05 7.6502072943e-07 4.9379024858e-05 8.4662970039e-05 5.3580851045e-07
          3.838453631e-05 8.4586463345e-05 1.3963388028e-06 4.9798592954e-05 8.5065628809e-05 1.2944076389e-06
          9.1416477517e-06 8.3825732872e-05 1.8013896579e-06 4.920027277e-05 8.4460400103e-05 1.6521349835e-06
          5.2116342886e-06 7.7842552855e-05 2.1625480713e-06 4.9456208217e-05 8.524810255e-05 2.1918265247e-06
          4.9304744607e-05 8.4108294686e-05 2.5435053885e-06 3.946499055e-05 8.4577535745e-05 2.8140709674e-06
          6.7678620326e-06 8.6180531071e-05 2.5339998047e-06 7.6886317402e-06 8.6444510089e-05 2.8709380331e-06
          5.0826702136e-06 7.9029639892e-05 3.3191215607e-06 6.8883227868e-06 8.6494408606e-05 3.4487757148e-06
          4.3922689656e-05 7.6309232099e-05 3.5512700833e-06 5.9908375079e-06 8.0599063949e-05 3.5220225527e-06
          8.5865849542e-06 8.4169172624e-05 3.5723433029e-06 7.0256746767e-06 8.7415144662e-05 3.7596166749e-06
          4.0051250835e-05 9.126549412e-05 3.8904381654e-06 3.8385893276e-05 9.19199083e-05 3.6352537336e-06
          4.2614246922e-05 7.7130345744e-05 4.115946922e-06 3.9115675463e-05 8.4645245806e-05 4.4891148718e-06
          8.2523656602e-06 8.6186693807e-05 4.4727480599e-06 7.6675178207e-06 8.7329201051e-05 4.4476191761e-06
          2.4974571716e-05 8.9325629233e-05 4.4324642658e-06 6.8684917096e-06 8.7486972916e-05 4.8788338063e-06
          4.5579032303e-05 7.7919161413e-05 5.3089916037e-06 8.5080309873e-06 8.6912812549e-05 5.1693982641e-06
          2.8760550776e-05 7.4894021964e-05 5.4880483731e-06 3.0130826417e-05 7.4775307439e-05 5.9239009715e-06
          4.772711327e-05 7.7317461546e-05 5.9021804191e-06 4.6207132982e-05 7.9642872151e-05 5.5066548157e-06
          9.1156525741e-06 8.6274376372e-05 4.2165725063e-06 2.8777745683e-05 7.4949784903e-05 6.6574602897e-06
          2.5444898711e-05 8.968943439e-05 6.1798741626e-06 1.1915254618e-05 7.608839951e-05 6.9341126618e-06
          4.6927398216e-05 7.6053649536e-05 6.5924728005e-06 4.7661804274e-05 9.564262291e-05 6.5151298259e-06
          1.2406642782e-05 7.4429342931e-05 7.0467640398e-06 2.9516335417e-05 7.4845534982e-05 7.725136129e-06
          4.8044068535e-05 7.767626812e-05 7.6174947026e-06 4.833753701e-05 9.4618611911e-05 7.8033490354e-06
          4.7091441957e-05 9.4533737865e-05 8.8148080977e-06 4.8372668971e-05 8.4062325186e-05 1.7742831915e-06
          6.4100213422e-06 8.6722211563e-05 4.5697088353e-06 7.4394506555e-06 8.650052041e-05 4.6175755415e-06
          4.9961340665e-06 7.4311006756e-05 5.9609810705e-06 2.9012078812e-05 7.426769298e-05 6.2163262555e-06
          1.2595537555e-05 7.4516254244e-05 8.6008058133e-06 4.8686411901e-05 8.3510916738e-05 5.7054251101e-07
          4.7791691031e-05 8.4358078311e-05 8.566414067e-07 5.6807803048e-05 2.3444465114e-05 1.9079950562e-06
          5.0385486247e-05 1.3511025827e-05 2.3675308967e-06 6.3422150561e-05 1.4969311451e-05 2.2844239993e-06
          5.6007662351e-05 2.2179972802e-05 2.5986566925e-06 5.036330549e-05 1.2868268641e-05 3.0423468615e-06
          6.399214908e-05 1.3391111679e-05 3.1369550015e-06 5.1339164202e-05 1.3607635083e-05 3.5963128084e-06
          5.8776007791e-05 5.379225513e-06 4.3293839553e-06 5.1210998208e-05 1.2808654901e-05 4.2922679313e-06
          5.0302369345e-05 1.2774446986e-05 4.0184504542e-06 5.1442388212e-05 1.3821404536e-05 4.5232295633e-06
          8.0120895291e-05 1.8887323677e-05 4.230696959e-06 9.3513670436e-05 8.0501558841e-06 4.0932836782e-06
          9.2972419225e-05 1.602233533e-05 4.7124681259e-06 8.7190186605e-05 3.3877079204e-06 5.8804821492e-06
          5.5016760598e-05 1.7052228941e-05 4.9623349696e-06 8.0408353824e-05 1.8106438802e-05 5.9288358898e-06
          5.8232231822e-05 5.7156753428e-06 6.0643219513e-06 9.3552269391e-05 6.4921437115e-06 6.0352422224e-06
          7.1695314546e-05 1.2387474271e-05 6.261866929e-06 7.0141795732e-05 1.2997941667e-05 6.0238198785e-06
          9.300999227e-05 1.601400254e-05 6.3788834268e-06 9.3161615951e-05 1.7671125534e-05 5.5616733334e-06
          8.0982848885e-05 1.9683015125e-05 6.1096270656e-06 5.5144300859e-05 1.7976588424e-05 6.8779359026e-06
          8.7629246991e-05 3.7273266571e-06 7.5117313827e-06 9.3637092505e-05 7.7977128967e-06 7.0285841502e-06
          9.3707414635e-05 2.3518814487e-05 7.1678614404e-06 5.3839874454e-05 1.6896130546e-05 6.0479624153e-06
          5.1279061154e-05 1.3373928596e-05 2.4110897812e-06 5.0178172387e-05 1.3570811461e-05 3.5756834222e-06
          9.3702670711e-05 8.1371135821e-06 5.6482135733e-06 9.4049923064e-05 1.7851651137e-05 6.8371432462e-06
          5.0094706239e-05 1.3231140656e-05 4.6963373279e-06 5.2736595535e-05 4.8825557315e-05 1.2272777212e-06
          5.3701456636e-05 4.8660607717e-05 1.3310395843e-06 5.2614792367e-05 4.8114041419e-05 1.92970424e-06
          5.7150427892e-05 3.8438090996e-05 2.3050865821e-06 5.3733743698e-05 4.8899899411e-05 2.4239861887e-06
          5.2420695283e-05 4.8869093007e-05 2.5283045488e-06 5.259248428e-05 4.8054906074e-05 2.9583820833e-06
          5.3884334193e-05 4.8220546887e-05 3.5262053188e-06 5.3425603255e-05 4.9301019317e-05 3.4069432786e-06
          5.7892539189e-05 3.8973466872e-05 3.7035015339e-06 7.2800001362e-05 4.9700000091e-05 5.4199999795e-06
          8.7412154244e-05 4.9580328778e-05 5.6047747421e-06 9.2429450888e-05 2.4320805096e-05 7.719385394e-06
          8.8324857643e-05 2.511650564e-05 7.7695694927e-06 8.8857261289e-05 2.6632584195e-05 8.3896102296e-06
          5.2490100643e-05 4.8570655053e-05 3.6864955746e-06 5.7791439758e-05 3.8062356907e-05 4.9938917073e-06
          5.3472678701e-05 4.7969173465e-05 2.7857308851e-06 5.4238276789e-05 4.9074220442e-05 3.4341562696e-06
          7.4020426837e-05 7.3074334068e-05 4.746221407e-07 7.4820949521e-05 7.3424453149e-05 8.0487700416e-07
          7.3539202276e-05 7.3622257332e-05 1.1017477846e-06 5.2119321481e-05 5.3318202845e-05 2.3955228698e-06
          9.2443100584e-05 5.3505977121e-05 1.9583603716e-06 7.4005736678e-05 7.298343553e-05 1.7317802303e-06
          7.3962182796e-05 7.3770563176e-05 2.3415609576e-06 5.311996938e-05 5.4089472542e-05 3.4966437852e-06
          9.3120492238e-05 5.4443626141e-05 3.2331236071e-06 7.9382611148e-05 7.0388974564e-05 3.0496985346e-06
          7.9598059529e-05 6.976891018e-05 3.7139959659e-06 7.4399998994e-05 7.1700000262e-05 3.7800000428e-06
          7.6571704994e-05 5.6898308685e-05 4.140407782e-06 7.4327253969e-05 5.7478981034e-05 4.3452973841e-06
          7.9538025602e-05 6.9930036261e-05 4.6806576393e-06 7.9389312305e-05 7.1225716965e-05 4.3859213292e-06
          5.2776773373e-05 5.2866806072e-05 4.6983268476e-06 7.6936397818e-05 5.5681270169e-05 5.2165059969e-06
          7.4850817327e-05 5.7699628087e-05 5.212801625e-06 7.636713417e-05 5.7558117987e-05 5.2377472457e-06
          7.5659751019e-05 5.8074539993e-05 4.9261770982e-06 7.9088342318e-05 7.0889342169e-05 5.1943520702e-06
          8.7969943706e-05 5.1168692153e-05 6.2543763306e-06 7.4878960731e-05 5.7312347053e-05 6.6149445956e-06
          7.6513206295e-05 5.7786142861e-05 6.3814436544e-06 7.724819443e-05 5.7241999457e-05 6.1767382249e-06
          8.0140169302e-05 6.6651402449e-05 6.4037367338e-06 7.6210766565e-05 5.8439669374e-05 6.9049947342e-06
          7.9668054241e-05 6.6943510319e-05 7.9100309449e-06 7.8664146713e-05 6.9723973866e-05 4.469090527e-06
          5.1860046369e-05 5.3115567425e-05 8.4520019072e-07 7.912844012e-05 7.0513429819e-05 3.9192673285e-06
          7.869208639e-05 7.0146830694e-05 5.4981978792e-06 7.5322284829e-05 5.7327175455e-05 5.8695927692e-06
          7.5456475315e-05 5.7980974816e-05 6.8250415097e-06 7.6099728176e-05 5.7059565734e-05 6.1761770667e-06
          7.5141389971e-05 5.7420111261e-05 4.1343027988e-06 5.0076683692e-05 8.4401326603e-05 6.6826629563e-07
          7.4321505963e-05 8.6271080363e-05 1.3934686649e-06 7.4365394539e-05 7.41111362e-05 1.4724130324e-06
          5.0700000429e-05 7.5800002378e-05 1.5699999949e-06 7.4892821431e-05 8.4689236246e-05 2.24796986e-06
          9.7396594356e-05 8.7322696345e-05 2.0197367121e-06 9.8271113529e-05 8.7740831077e-05 1.9700644316e-06
          9.69530156e-05 8.7043525127e-05 2.9070452001e-06 9.7747280961e-05 8.8088025223e-05 2.658094445e-06
          9.7468975582e-05 8.8922643044e-05 2.9973668916e-06 9.7026786534e-05 8.7976412033e-05 3.2616173939e-06
          8.2209917309e-05 8.9103479695e-05 3.779086228e-06 9.737759683e-05 8.8024367869e-05 4.1294592847e-06
          7.1059483162e-05 9.4290990091e-05 4.4265302677e-06 7.257766265e-05 9.3694412499e-05 4.6591626415e-06
          7.0544010669e-05 8.827005513e-05 5.2792324823e-06 8.3519029431e-05 8.8873290224e-05 5.0754201766e-06
          7.1117639891e-05 8.980640996e-05 5.1482925301e-06 8.7241111032e-05 7.881566853e-05 5.7433931033e-06
          7.5292402471e-05 9.3951108283e-05 5.6639032664e-06 8.6386724433e-05 7.7109674748e-05 6.1162909333e-06
          8.6923544586e-05 7.7891672845e-05 5.9863118622e-06 8.5424348072e-05 7.8077500802e-05 6.0396046138e-06
          7.1560338256e-05 9.113260603e-05 6.2032213464e-06 8.5547362687e-05 7.7194308687e-05 6.5200142672e-06
          8.6734624347e-05 7.7642522228e-05 6.6083321144e-06 8.6231062596e-05 7.8724115156e-05 6.866622698e-06
          8.7135493231e-05 7.8993405623e-05 6.7685318754e-06 8.2641010522e-05 8.9271532488e-05 6.5079098022e-06
          5.4177449783e-05 9.4685907243e-05 6.5697122409e-06 5.4825915868e-05 9.5419563877e-05 6.6024449552e-06
          5.272956696e-05 9.5584589872e-05 6.7568585109e-06 5.3677074902e-05 9.555160068e-05 6.5008703132e-06
          9.1333291493e-05 8.3345359599e-05 7.0660162237e-06 9.192412108e-05 8.4907194832e-05 7.1766244218e-06
          6.410619244e-05 8.987410547e-05 7.3519977377e-06 7.521729276e-05 9.3813083367e-05 7.2547777563e-06
          5.3736945119e-05 9.6375777503e-05 7.4047520684e-06 9.3550654128e-05 8.4414794401e-05 7.4692679846e-06
          7.613912021e-05 9.5109848189e-05 7.9344872574e-06 5.3563599067e-05 9.5450122899e-05 7.5942512012e-06
          5.4641433962e-05 9.5733797934e-05 8.2002270574e-06 9.1802576208e-05 8.490664186e-05 8.154545867e-06
          9.1570000222e-05 8.3539067418e-05 8.7041380539e-06 9.2965885415e-05 8.4189450718e-05 8.3945924416e-06
          9.3701855803e-05 8.4423612861e-05 8.4420635176e-06 9.2489557574e-05 8.5221065092e-05 9.2801656137e-06
          6.4054052928e-05 8.8290704298e-05 8.5575375124e-06 9.3571245088e-05 8.4873128799e-05 9.289996342e-06
          9.269369184e-05 8.466392319e-05 7.6964752225e-06 7.4571449659e-05 7.4570227298e-05 2.23516804e-06
          7.5101772381e-05 7.4253090133e-05 9.68699851e-07 9.7743381048e-05 8.7232605438e-05 4.180174983e-06
          8.5406689323e-05 7.7750148193e-05 7.1886934165e-06 9.2973015853e-05 8.4265448095e-05 9.5650502772e-06
          5.4574473324e-05 9.5915769634e-05 7.3622159107e-06 6.413502706e-05 8.9537068561e-05 9.1985057225e-06
          5.01639297e-05 8.3918363089e-05 1.3589682339e-06 8.6224325059e-05 7.7896482253e-05 7.2294965321e-06
          9.2403410235e-05 8.4566396254e-05 8.8893475549e-06
        </DataArray>
      </Points>
      <Cells>
        <DataArray type="Int64" Name="connectivity" format="ascii" RangeMin="0" RangeMax="322">
          0 1 2 3 4 5
          6 7 8 9 10 11
          12 13 14 15 16 17
          18 19 20 21 22 23
          24 25 26 27 28 29
          30 31 32 33 34 35
          36 37 38 39 40 41
          42 43 44 45 46 47
          48 49 50 51 52 53
          54 55 56 57 58 59
          60 61 62 63 64 65
          66 67 68 69 70 71
          72 73 74 75 76 77
          78 79 80 81 82 83
          84 85 86 87 88 89
          90 91 92 93 94 95
          96 97 98 99 100 101
          102 103 104 105 106 107
          108 109 110 111 112 113
          114 115 116 117 118 119
          120 121 122 123 124 125
          126 127 128 129 130 131
          132 133 134 135 136 137
          138 139 140 141 142 143
          144 145 146 147 148 149
          150 151 152 153 154 155
          156 157 158 159 160 161
          162 163 164 165 166 167
          168 169 170 171 172 173
          174 175 176 177 178 179
          180 181 182 183 184 185
          186 187 188 189 190 191
          192 193 194 195 196 197
          198 199 200 201 202 203
          204 205 206 207 208 209
          210 211 212 213 214 215
          216 217 218 219 220 221
          222 223 224 225 226 227
          228 229 230 231 232 233
          234 235 236 237 238 239
          240 241 242 243 244 245
          246 247 248 249 250 251
          252 253 254 255 256 257
          258 259 260 261 262 263
          264 265 266 267 268 269
          270 271 272 273 274 275
          276 277 278 279 280 281
          282 283 284 285 286 287
          288 289 290 291 292 293
          294 295 296 297 298 299
          300 301 302 303 304 305
          306 307 308 309 310 311
          312 313 314 315 316 317
          318 319 320 321 322
        </DataArray>
        <DataArray type="Int64" Name="offsets" format="ascii" RangeMin="1" RangeMax="323">
          1 2 3 4 5 6
          7 8 9 10 11 12
          13 14 15 16 17 18
          19 20 21 22 23 24
          25 26 27 28 29 30
          31 32 33 34 35 36
          37 38 39 40 41 42
          43 44 45 46 47 48
          49 50 51 52 53 54
          55 56 57 58 59 60
          61 62 63 64 65 66
          67 68 69 70 71 72