<?xml version="1.0"?>
<VTKFile type="UnstructuredGrid" version="0.1" byte_order="LittleEndian" header_type="UInt32" compressor="vtkZLibDataCompressor">
  <UnstructuredGrid>
    <Piece NumberOfPoints="254" NumberOfCells="254">
      <PointData>
        <DataArray type="Int32" Name="id" format="ascii" RangeMin="1" RangeMax="254">
          133 174 75 19 134 59
          50 123 97 49 42 118
          131 15 22 44 3 196
          206 241 244 93 40 1
          78 176 175 54 150 117
          24 7 124 119 20 109
          154 62 106 84 141 161
          137 61 166 188 198 203
          207 208 215 220 225 245
          246 148 121 77 177 32
          51 60 85 105 81 151
          167 129 155 67 18 92
          160 145 135 14 26 82
          57 158 89 12 181 186
          189 192 209 216 221 226
          227 228 235 113 111 222
          37 34 142 156 90 168
          79 46 35 101 157 2
          126 86 115 136 69 48
          120 72 149 39 13 99
          30 237 23 96 95 182
          187 199 200 204 210 211
          217 229 230 236 242 247
          110 43 127 56 33 159
          73 6 38 179 146 47
          87 116 17 173 88 41
          169 91 102 58 248 190
          197 218 223 243 107 11
          162 66 138 103 45 130
          152 36 191 212 238 249
          10 125 55 163 25 80
          147 74 5 140 4 132
          108 164 9 76 139 52
          183 184 185 193 195 213
          224 231 239 250 68 104
          21 29 65 170 122 178
          28 8 83 94 114 144
          63 53 165 153 27 70
          171 31 128 180 16 112
          172 100 71 98 143 194
          201 202 205 214 219 64
          232 233 234 240 251 252
          253 254
        </DataArray>
        <DataArray type="Int32" Name="type" format="ascii" RangeMin="1" RangeMax="2">
          2 2 2 1 1 1
          1 1 1 1 1 1
          1 1 1 1 1 1
          2 1 2 1 1 1
          2 2 2 1 1 1
          1 1 2 1 1 2
          2 2 2 1 2 2
          2 2 1 2 2 1
          2 2 1 2 2 2
          2 2 2 2 2 1
          1 1 1 2 1 1
          1 1 2 2 1 1
          1 1 2 1 1 1
          1 2 1 1 2 1
          2 1 2 1 2 2
          2 2 2 2 2 2
          1 1 2 2 1 1
          2 1 1 1 2 1
          1 1 1 2 2 1
          1 2 2 1 1 1
          1 2 1 1 1 2
          1 2 2 1 2 2
          1 2 2 2 1 2
          1 1 2 1 1 2
          2 1 1 1 1 1
          1 1 1 1 1 1
          1 1 1 1 2 2
          1 1 2 1 2 1
          2 2 2 1 1 1
          1 1 2 2 2 2
          1 2 1 2 1 1
          1 2 1 1 1 2
          2 2 1 2 2 1
          2 2 2 1 2 2
          1 2 2 2 2 1
          1 1 2 2 2 2
          1 1 1 1 2 2
          2 1 2 1 1 2
          2 1 2 2 1 2
          2 1 2 1 2 1
          2 2 1 2 1 2
          2 2 2 2 2 2
          2 2
        </DataArray>
        <DataArray type="Float64" Name="diameter" format="ascii" RangeMin="8.1172186844e-07" RangeMax="1.9688285052e-06">
          9.4816988071e-07 8.4196444322e-07 1.0129436764e-06 1.7257240497e-06 1.6744589309e-06 1.7905578628e-06
          1.7787955922e-06 1.8128391556e-06 1.6386175747e-06 1.835348648e-06 1.9118618122e-06 1.8552062469e-06
          1.6300058118e-06 1.7227551699e-06 1.8454777263e-06 1.6298361053e-06 1.9516922631e-06 1.5726392032e-06
          9.3849137896e-07 1.4861291758e-06 8.8300870118e-07 1.6675542084e-06 1.8646290997e-06 1.7565405818e-06
          8.4985394806e-07 1.0494128984e-06 1.0387145827e-06 1.8909652548e-06 1.6131982608e-06 1.845211313e-06
          1.713717725e-06 1.6314284213e-06 1.0511723005e-06 1.6793999132e-06 1.8905890482e-06 9.8199441333e-07
          8.510769409e-07 8.7096566929e-07 9.2098724864e-07 1.6825727974e-06 1.0184268834e-06 1.0525601793e-06
          1.0119193977e-06 9.4045363542e-07 1.6235251796e-06 9.5320994767e-07 8.918745861e-07 1.5123729931e-06
          8.7569913594e-07 9.3464698947e-07 1.5488496228e-06 9.380928107e-07 8.520897356e-07 8.68668467e-07
          8.5982148015e-07 9.2782727511e-07 9.3901789165e-07 8.3700366876e-07 1.0357626219e-06 1.9414395475e-06
          1.9105952279e-06 1.779952532e-06 1.5733541821e-06 9.3844254493e-07 1.7133107904e-06 1.6265873134e-06
          1.6219728918e-06 1.7174875005e-06 9.4309775544e-07 1.0425904573e-06 1.6443578299e-06 1.8888713604e-06
          1.6160158573e-06 1.5899700297e-06 1.0228522794e-06 1.7013403034e-06 1.6690288822e-06 1.6855505052e-06
          1.9355660901e-06 8.9402489042e-07 1.857218631e-06 1.7531133059e-06 9.8093421964e-07 1.66165313e-06
          9.8147964547e-07 1.5788848821e-06 9.2629159484e-07 1.5080654348e-06 8.885666838e-07 8.2234501577e-07
          8.3690338605e-07 8.8886405904e-07 9.0150699644e-07 8.8834116211e-07 9.3914107478e-07 8.7410797144e-07
          1.8905889621e-06 1.8871785559e-06 1.0223288164e-06 8.8314092962e-07 1.5743438049e-06 1.6211920131e-06
          8.9168946373e-07 1.8950306362e-06 1.6675576714e-06 1.8209505936e-06 9.1261307837e-07 1.8038864276e-06
          1.7134191427e-06 1.684739024e-06 1.7199676042e-06 1.0364077717e-06 1.0120806927e-06 1.8367074528e-06
          1.7437379546e-06 8.9083040891e-07 8.9618951966e-07 1.629761658e-06 1.8964496374e-06 1.8071904368e-06
          1.8798065941e-06 8.5258566319e-07 1.9197976799e-06 1.7880669348e-06 1.5916531624e-06 9.7627755737e-07
          1.6626982865e-06 8.953757344e-07 9.0252874767e-07 1.5648698829e-06 9.3415288044e-07 9.5940763294e-07
          1.5067361081e-06 9.1145725136e-07 8.9741618633e-07 8.1172186844e-07 1.5422075087e-06 8.2907417754e-07
          1.766349962e-06 1.6228629646e-06 1.0052278298e-06 1.8764124068e-06 1.8442881704e-06 8.9278518363e-07
          8.4011053334e-07 1.8905889743e-06 1.9208952475e-06 1.6049889008e-06 1.5899700593e-06 1.9577051924e-06
          1.695370343e-06 1.7795653634e-06 1.6850676168e-06 1.6005592511e-06 1.6679007685e-06 1.9152983853e-06
          1.6095549833e-06 1.5567049555e-06 1.7386728469e-06 1.753113338e-06 8.648704247e-07 9.9496690555e-07
          1.6440695222e-06 1.5582458708e-06 9.3628812721e-07 1.4867793857e-06 8.9130509098e-07 1.7605485202e-06
          8.8370406132e-07 9.1301944076e-07 9.7025472528e-07 1.9400743745e-06 1.8985849966e-06 1.8115543699e-06
          1.7242505797e-06 1.6011489794e-06 1.0175325446e-06 9.3991772233e-07 8.4178397194e-07 8.3144598481e-07
          1.6454708679e-06 8.5156759809e-07 1.9406045383e-06 9.2114343535e-07 1.7686086818e-06 1.6545332776e-06
          1.5707328555e-06 1.0517145069e-06 1.9118618018e-06 1.7380546562e-06 1.6594861554e-06 1.032046512e-06
          9.3995735876e-07 1.0535732404e-06 1.6822197783e-06 9.6486000426e-07 9.8352501996e-07 1.6083908931e-06
          9.8960278293e-07 9.89934984e-07 1.009224787e-06 1.5621476861e-06 9.819697373e-07 9.0888084193e-07
          1.5519465793e-06 8.231717874e-07 8.2145035919e-07 8.4661870265e-07 1.0156539528e-06 1.7969802657e-06
          1.832200861e-06 1.9089513243e-06 8.6616432784e-07 1.0417074623e-06 8.826807004e-07 9.7893432806e-07
          1.910595223e-06 1.6310589986e-06 1.7003777398e-06 1.6340230332e-06 9.1158480424e-07 9.4342548004e-07
          9.0686007397e-07 1.8646291124e-06 1.0494943891e-06 1.6407052808e-06 1.9688285052e-06 8.5357686207e-07
          8.1265766241e-07 1.8284457688e-06 8.2719667129e-07 9.657674434e-07 1.6869581358e-06 8.9669126681e-07
          1.0318716978e-06 1.7485516534e-06 9.1769736241e-07 1.9207463164e-06 9.9094707098e-07 1.5299712041e-06
          9.8145223041e-07 9.1681700323e-07 1.5513129016e-06 9.3804171692e-07 1.5492592385e-06 9.4434085078e-07
          8.9170155926e-07 8.3912789718e-07 8.6272861764e-07 8.4157923857e-07 8.5665962825e-07 8.6548881505e-07
          8.9459779471e-07 8.8490274391e-07
        </DataArray>
      </PointData>
      <CellData>
      </CellData>
      <Points>
        <DataArray type="Float32" Name="Points" NumberOfComponents="3" format="ascii" RangeMin="9.7653803808e-06" RangeMax="0.00013176762198">
          1.9622591935e-05 2.3456939743e-05 4.681061796e-07 2.0104918804e-05 2.2907370294e-05 1.7827384227e-06
          2.0266459615e-05 2.3782220524e-05 1.4097443e-06 4.9556642807e-06 8.5638857854e-06 1.9313013127e-06
          1.2845405763e-05 1.7004917026e-05 1.7592089989e-06 4.0721239202e-05 1.5487339624e-05 2.4517692054e-06
          1.3368949112e-05 1.5555338905e-05 2.5422605177e-06 4.9440832299e-06 7.6767428254e-06 3.4621257328e-06
          4.1510949814e-05 1.5675235773e-05 5.0160051615e-06 3.1443552871e-05 8.1866019173e-06 5.5092114053e-06
          1.7200000002e-05 5.7000002016e-06 6.1699997786e-06 1.4883903532e-06 9.2980844784e-06 6.2920357777e-06
          3.21200896e-05 9.1230713224e-06 6.7823675636e-06 2.0337113256e-06 1.0850947547e-05 6.9271195571e-06
          1.4600000213e-05 8.9300001491e-06 7.4399999903e-06 2.5839894079e-05 1.6651571059e-05 6.5946087489e-06
          4.6400000429e-05 1.1600000107e-05 7.9499995991e-06 2.5368319257e-05 1.6943347873e-05 8.099189472e-06
          1.9005712602e-05 2.3218028218e-05 1.0874441614e-06 4.1112769395e-05 1.536723903e-05 3.5366479096e-06
          1.9283615984e-05 2.3096210498e-05 1.6983223077e-06 1.4085109797e-05 3.8684142055e-05 2.4371863674e-06
          1.4506942534e-05 4.0402101149e-05 2.2929743864e-06 2.9405788155e-05 4.0643331886e-05 3.5050006773e-06
          4.6268680308e-05 4.1005798266e-05 3.8836005842e-06 4.5119260903e-05 4.0765135054e-05 4.8469869398e-06
          4.5692679123e-05 4.156072464e-05 4.5612778194e-06 3.1035349821e-05 4.8795245675e-05 4.8637703003e-06
          3.9058355469e-05 3.9069058403e-05 5.0085805015e-06 2.9393959267e-05 3.9737326006e-05 5.0683756854e-06
          3.9555943658e-05 3.7691344914e-05 5.752810921e-06 1.7226255295e-05 3.9848757297e-05 5.523852451e-06
          4.5735629101e-05 4.1149236495e-05 5.5658060774e-06 3.1728253816e-05 4.975437696e-05 6.1677383201e-06
          4.6368431867e-06 2.9522800105e-05 6.8846493377e-06 4.5785441216e-06 3.2277908758e-05 6.032094916e-06
          5.7904512687e-06 3.3008214814e-05 7.0129062806e-06 4.8494775911e-06 3.3903808799e-05 6.7762198341e-06
          3.7256428186e-05 3.9516304241e-05 7.3951337072e-06 6.0616571318e-06 2.9213308153e-05 7.9207329691e-06
          4.3700406422e-06 3.2718809962e-05 7.5463244684e-06 3.6676297896e-05 4.0469247324e-05 7.8772372945e-06
          3.6048037146e-05 4.0573704609e-05 8.7745147539e-06 3.7855355913e-05 4.0301874833e-05 9.0522171377e-06
          5.143881026e-06 2.9679593354e-05 9.1865858849e-06 3.6931149225e-05 4.0217884816e-05 8.9964196377e-06
          4.8973820412e-06 3.276372081e-05 8.3235190687e-06 1.3710221538e-05 3.8497411879e-05 9.1739144636e-07
          4.690993137e-06 3.2902607927e-05 6.6900042839e-06 3.8023372326e-05 3.99257151e-05 8.2272872532e-06
          1.7759888578e-05 4.1313214751e-05 5.691786555e-06 4.9965219659e-06 3.3448686736e-05 7.5232419476e-06
          3.6625169741e-05 4.0005164919e-05 7.0439114097e-06 4.546908167e-05 4.0817252739e-05 3.6900178202e-06
          6.0322086028e-06 3.3758667996e-05 7.3027117651e-06 3.5850418499e-05 6.9864654506e-05 2.5424512842e-06
          3.6567205825e-05 6.950457464e-05 1.815595283e-06 3.6448593164e-05 7.0831672929e-05 1.887677513e-06
          3.7523193896e-05 7.041941717e-05 2.2121053007e-06 3.5306176869e-05 7.2273112892e-05 1.9936178433e-06
          3.7406809952e-06 5.7287314121e-05 3.1500471778e-06 1.5957921278e-05 6.7340413807e-05 3.6670883219e-06
          3.5165019654e-05 7.0671259891e-05 3.182516366e-06 4.0197101043e-06 7.2809008998e-05 3.7927413814e-06
          4.0351451389e-06 5.6524440879e-05 4.8516149036e-06 4.5965093705e-06 5.8064997575e-05 5.0282756092e-06
          9.2221698651e-06 6.7021668656e-05 5.0814937822e-06 1.5450303181e-05 6.7654495069e-05 5.286666692e-06
          3.4407123621e-06 7.349842781e-05 5.1730826272e-06 5.1787646953e-06 7.3222297942e-05 4.9445088735e-06
          1.0067606127e-05 5.4728352552e-05 5.5567966228e-06 2.3116723241e-05 6.551786646e-05 5.8561249716e-06
          5.8599107433e-06 6.2764265749e-05 6.4209384618e-06 4.9252830649e-06 7.0341651735e-05 6.2394160523e-06
          4.6530008149e-06 7.2828224802e-05 6.0030811255e-06 7.3765763773e-06 6.2168277509e-05 6.6533384597e-06
          2.3023572794e-05 6.4249943534e-05 7.0901510298e-06 9.2648360805e-06 6.7028733611e-05 6.7413102443e-06
          9.8453238024e-06 6.8742279836e-05 6.5654899117e-06 2.8454111089e-05 7.3975883424e-05 7.3659480222e-06
          7.3239266385e-06 6.3476072683e-05 7.897229807e-06 5.3541539273e-06 7.0673384471e-05 7.8327975643e-06
          4.8927413445e-06 7.3802519182e-05 5.6977301028e-06 3.5336634028e-05 7.1962043876e-05 4.157652711e-06
          4.2841375034e-06 7.3503477324e-05 6.6344914558e-06 9.2878390205e-06 5.3496056353e-05 6.2298718149e-06
          3.5446417314e-05 6.9705325586e-05 1.7632196432e-06 2.4295686671e-05 6.3503786805e-05 6.4942014433e-06
          4.2800347728e-06 7.3153350968e-05 5.2191107898e-06 3.6837911466e-05 6.9515852374e-05 2.6382624583e-06
          4.0395789256e-06 7.3397561209e-05 4.4341168177e-06 2.8818349165e-05 7.3628820246e-05 6.6455777414e-06
          3.6598547013e-05 7.0359943493e-05 2.591573093e-06 2.9319518944e-05 7.3975796113e-05 7.3917408372e-06
          4.8382971727e-05 8.4155290097e-05 8.8970426759e-07 4.9461246817e-05 8.465701103e-05 6.6359876882e-07
          3.8396392483e-05 8.4586383309e-05 1.4124453855e-06 9.1357660494e-06 8.3829378127e-05 1.8201556031e-06
          4.8816538765e-05 8.436684584e-05 1.7146892333e-06 4.941242878e-05 8.5086787294e-05 2.034149702e-06
          5.2101281653e-06 7.785687194e-05 2.1764351459e-06 3.9422560803e-05 8.4579965915e-05 2.8269598715e-06
          7.6517635534e-06 8.6434534751e-05 2.8590836791e-06 5.9712992879e-06 8.0564524978e-05 3.5170060073e-06
          4.2646068323e-05 7.7110380516e-05 4.1022140067e-06 8.5924666564e-06 8.4165527369e-05 3.553577244e-06
          7.0823493843e-06 8.7269982032e-05 3.8373714233e-06 4.0032824472e-05 9.1272733698e-05 3.8876141844e-06
          3.8404323277e-05 9.1912668722e-05 3.6380774873e-06 3.9123529859e-05 8.4643681475e-05 4.4499270189e-06
          2.4979666705e-05 8.9329572802e-05 4.4513981265e-06 6.6943343882e-06 8.7080930825e-05 4.6945879149e-06
          8.4877647168e-06 8.6345105956e-05 4.3991558414e-06 4.559264562e-05 7.7956530731e-05 5.3132762332e-06
          4.6193519665e-05 7.9605502833e-05 5.5023697314e-06 2.8776161344e-05 7.4863492046e-05 5.5603009059e-06
          3.009890861e-05 7.4709372711e-05 5.9558465182e-06 4.7717403504e-05 7.7302116551e-05 5.9105618675e-06
          2.5439803721e-05 8.9685490821e-05 6.1609403019e-06 1.1927368178e-05 7.6054857345e-05 6.9522311605e-06
          4.7706183977e-05 9.5573632279e-05 6.6027141656e-06 2.9728427762e-05 7.4036397564e-05 6.2936351242e-06
          1.2486977539e-05 7.4505420343e-05 7.7892254922e-06 4.8044068535e-05 7.767626812e-05 7.6174947026e-06
          4.8275865993e-05 9.4684248324e-05 7.7335307651e-06 7.5980542533e-06 8.6731182819e-05 4.5223969209e-06
          5.1226820688e-06 7.9047473264e-05 3.2849209219e-06 4.9285161367e-05 8.4118990344e-05 2.510307695e-06
          8.507659004e-06 8.6900938186e-05 5.1533097576e-06 4.6937107982e-05 7.6068994531e-05 6.5840913521e-06
          4.903466106e-05 8.3701575932e-05 4.6100979034e-07 2.8964568628e-05 7.4493058491e-05 6.3634547587e-06
          4.3890868255e-05 7.6329197327e-05 3.565003226e-06 6.8198901317e-06 8.622387395e-05 2.6271563911e-06
          2.9506853025e-05 7.4790194049e-05 7.7040031101e-06 6.9046486715e-06 8.657676517e-05 3.3907203942e-06
          4.7129349696e-05 9.453218081e-05 8.791143955e-06 4.9731424951e-05 8.5015846707e-05 1.2598540025e-06
          6.343426503e-05 1.4935771105e-05 2.3025422706e-06 5.6788383517e-05 2.3413775125e-05 1.9247577256e-06
          5.0802740589e-05 1.3397112525e-05 2.4802434382e-06 6.3980034611e-05 1.3424652934e-05 3.1188365028e-06
          5.8770125179e-05 5.3828648561e-06 4.3481500143e-06 5.1152470405e-05 1.2821546079e-05 4.2941360334e-06
          5.1345636166e-05 1.3621040125e-05 3.6544367958e-06 8.0120895291e-05 1.8887323677e-05 4.230696959e-06
          9.3606169685e-05 8.0927147792e-06 4.8542983677e-06 9.2972979473e-05 1.6022555428e-05 4.7324588195e-06
          8.7195279775e-05 3.3916498978e-06 5.8994160099e-06 5.4419266235e-05 1.6972979211e-05 5.5135001276e-06
          8.041516412e-05 1.8125121642e-05 5.9309782046e-06 5.8238114434e-05 5.7120359997e-06 6.0455558923e-06
          7.1676884545e-05 1.2394715668e-05 6.2590429479e-06 7.0160225732e-05 1.299070027e-05 6.0266438595e-06
          9.3019581982e-05 1.6043648429e-05 6.3569877966e-06 9.3588714662e-05 1.772280666e-05 6.1970781644e-06
          8.0976038589e-05 1.9664330466e-05 6.1074842961e-06 9.3553302577e-05 6.5080389504e-06 6.0473362282e-06
          5.5144300859e-05 1.7976588424e-05 6.8779359026e-06 8.7624153821e-05 3.7233846797e-06 7.492797522e-06
          5.1435916248e-05 1.3807999494e-05 4.4651055759e-06 5.0332691899e-05 1.3234313883e-05 3.3215449093e-06
          9.3636059319e-05 7.7818167483e-06 7.0164901445e-06 5.6027081882e-05 2.2210662792e-05 2.581894023e-06
          5.0278751587e-05 1.3040136764e-05 4.2515116547e-06 9.3691502116e-05 2.352879892e-05 7.1747281254e-06
          5.2786272136e-05 4.8740588682e-05 1.3161372863e-06 5.7226887293e-05 3.8487596612e-05 2.4591533929e-06
          5.2625407989e-05 4.8260077165e-05 1.8804853426e-06 5.3740204748e-05 4.8913625506e-05 2.4820319595e-06
          5.358139606e-05 4.8118134146e-05 3.1502968341e-06 5.7796554756e-05 3.8513469917e-05 4.213012744e-06
          7.2800001362e-05 4.9700000091e-05 5.4199999795e-06 8.7424523372e-05 4.9615540775e-05 5.6191747717e-06
          8.8337226771e-05 2.5151715818e-05 7.7839695223e-06 8.8844899437e-05 2.6597375836e-05 8.3752092905e-06
          5.2620111092e-05 4.8335590691e-05 3.2355269468e-06 5.3838608437e-05 4.9117406888e-05 3.3656488085e-06
          5.3642361308e-05 4.8669538955e-05 1.3258951412e-06 5.2455481637e-05 4.8756890465e-05 2.5389417715e-06
          9.2445363407e-05 2.4310820663e-05 7.712518709e-06 7.3714589234e-05 7.3417722888e-05 1.0462208593e-06
          5.2114628488e-05 5.331250577e-05 1.8172069076e-06 7.3934214015e-05 7.3139999586e-05 1.6373116978e-06
          9.245097317e-05 5.3516869229e-05 1.9731714929e-06 5.2920804592e-05 5.3920342907e-05 3.2899697544e-06
          9.3112619652e-05 5.4432734032e-05 3.2183122585e-06 7.9445482697e-05 7.0109752414e-05 3.4674931157e-06
          7.4399998994e-05 7.1700000262e-05 3.7800000428e-06 5.2786541346e-05 5.2917566791e-05 4.6375434977e-06
          7.6936674304e-05 5.5680680816e-05 5.2156597121e-06 7.9159195593e-05 6.9855996117e-05 4.4794264795e-06
          7.4767442129e-05 5.7477096561e-05 4.4560924835e-06 7.5940108218e-05 5.7716737501e-05 5.1653032642e-06
          8.7957574578e-05 5.1133480156e-05 6.239976301e-06 7.6213938883e-05 5.7503628341e-05 6.0885217863e-06
          7.5742849731e-05 5.8011930378e-05 6.7425667112e-06 8.0134283053e-05 6.6655040428e-05 6.4225027927e-06
          7.9269659182e-05 7.0777103247e-05 4.1631788008e-06 7.893521979e-05 7.0464986493e-05 5.2145801419e-06
          7.482017827e-05 7.3842114944e-05 9.4970300779e-07 7.6537246059e-05 5.6959477661e-05 4.3061163524e-06
          7.5263051258e-05 5.7460289099e-05 6.1351670411e-06 7.7111239079e-05 5.7269484387e-05 6.1755822571e-06
          7.967394049e-05 6.693987234e-05 7.8912644312e-06 7.5043994002e-05 5.7505134464e-05 5.2630753089e-06
          7.3980838351e-05 7.3713737947e-05 2.2553949748e-06 7.4013245467e-05 7.3096227425e-05 4.1372044279e-07
          7.4507232057e-05 7.4268158642e-05 1.77146444e-06 7.4327566836e-05 8.6254309281e-05 1.4025278006e-06
          5.0700000429e-05 7.5800002378e-05 1.5699999949e-06 7.4886767834e-05 8.4706000052e-05 2.2389106107e-06
          9.8124008218e-05 8.7818356405e-05 2.1225880573e-06 9.7673560958e-05 8.840335795e-05 2.725434797e-06
          9.6963951364e-05 8.7116372015e-05 2.9381662898e-06 9.7524833109e-05 8.7644497398e-05 4.082556643e-06
          8.2209917309e-05 8.9103479695e-05 3.779086228e-06 7.2540809924e-05 9.3708891654e-05 4.6535151341e-06
          8.343274385e-05 8.8898137619e-05 5.081315976e-06 7.0544032496e-05 8.8270011474e-05 5.2782870625e-06
          8.5428444436e-05 7.8054406913e-05 6.072000815e-06 8.6462277977e-05 7.784349873e-05 6.800016763e-06
          8.7210719357e-05 7.874439325e-05 5.763066838e-06 7.1560338256e-05 9.113260603e-05 6.2032213464e-06
          8.6695727077e-05 7.88036632e-05 6.8157964961e-06 8.2641367044e-05 8.9271459728e-05 6.5081385401e-06
          7.5318981544e-05 9.397258691e-05 6.4929718064e-06 5.4720789194e-05 9.5496157883e-05 6.8600697887e-06
          5.2806797612e-05 9.5580231573e-05 6.7364803726e-06 6.4105923229e-05 8.9854009275e-05 7.3865799095e-06
          5.3726118495e-05 9.6317962743e-05 7.4165882324e-06 5.4643405747e-05 9.574003343e-05 7.5526481851e-06
          9.1654648713e-05 8.3604456449e-05 8.6331911007e-06 9.1809073638e-05 8.4905310359e-05 8.1356774899e-06
          9.2944508651e-05 8.4572908236e-05 7.5798338912e-06 7.6044554589e-05 9.4976930995e-05 7.8584052972e-06
          9.3578775704e-05 8.4482795501e-05 8.644384252e-06 6.4093823312e-05 8.8926615717e-05 8.9868526629e-06
          9.3255272077e-05 8.4540901298e-05 9.5085879366e-06 9.1332723969e-05 8.3344923041e-05 7.066177659e-06
          8.5532694357e-05 7.7522607171e-05 6.821946954e-06 9.2569549452e-05 8.5126222984e-05 9.2778400358e-06
          7.1096939791e-05 8.9768800535e-05 5.2996915656e-06 9.2696740467e-05 8.4378392785e-05 8.4920102381e-06
          7.1096343163e-05 9.4276510936e-05 4.432177775e-06 5.0093553e-05 8.4167346358e-05 1.0154029724e-06
          9.7104741144e-05 8.7909509602e-05 3.3079898003e-06 8.636192797e-05 7.719619316e-05 6.1730088419e-06
          8.6851046945e-05 7.7991877333e-05 6.0143602241e-06 9.2110960395e-05 8.484096179e-05 7.327053936e-06
          9.74309296e-05 8.7342858023e-05 2.0215475161e-06 5.4265154176e-05 9.4835158961e-05 6.5994390752e-06
          5.3616255173e-05 9.552170377e-05 6.5266981437e-06 5.3574425692e-05 9.5507937658e-05 7.5824154919e-06
        </DataArray>
      </Points>
      <Cells>
        <DataArray type="Int64" Name="connectivity" format="ascii" RangeMin="0" RangeMax="253">
          0 1 2 3 4 5
          6 7 8 9 10 11
          12 13 14 15 16 17
          18 19 20 21 22 23
          24 25 26 27 28 29
          30 31 32 33 34 35
          36 37 38 39 40 41
          42 43 44 45 46 47
          48 49 50 51 52 53
          54 55 56 57 58 59
          60 61 62 63 64 65
          66 67 68 69 70 71
          72 73 74 75 76 77
          78 79 80 81 82 83
          84 85 86 87 88 89
          90 91 92 93 94 95
          96 97 98 99 100 101
          102 103 104 105 106 107
          108 109 110 111 112 113
          114 115 116 117 118 119
          120 121 122 123 124 125
          126 127 128 129 130 131
          132 133 134 135 136 137
          138 139 140 141 142 143
          144 145 146 147 148 149
          150 151 152 153 154 155
          156 157 158 159 160 161
          162 163 164 165 166 167
          168 169 170 171 172 173
          174 175 176 177 178 179
          180 181 182 183 184 185
          186 187 188 189 190 191
          192 193 194 195 196 197
          198 199 200 201 202 203
          204 205 206 207 208 209
          210 211 212 213 214 215
          216 217 218 219 220 221
          222 223 224 225 226 227
          228 229 230 231 232 233
          234 235 236 237 238 239
          240 241 242 243 244 245
          246 247 248 249 250 251
          252 253
        </DataArray>
        <DataArray type="Int64" Name="offsets" format="ascii" RangeMin="1" RangeMax="254">
          1 2 3 4 5 6
          7 8 9 10 11 12
          13 14 15 16 17 18
          19 20 21 22 23 24
          25 26 27 28 29 30
          31 32 33 34 35 36
          37 38 39 40 41 42
          43 44 45 46 47 48
          49 50 51 52 53 54
          55 56 57 58 59 60
          61 62 63 64 65 66
          67 68 69 70 71 72
          73 74 75 76 77 78
          79 80 81 82 83 84
          85 86 87 88 89 90
          91 92 93 94 95 96
          97 98 99 100 101 102
          103 104 105 106 107 108
          109 110 111 112 113 114
          115 116 117 118 119 120
          121 122 123 124 125 126
          127 128 129 130 131 132
          133 134 135 136 137 138
          139 140 141 142 143 144
          145 146 147 148 149 150
          151 152 153 154 155 156
          157 158 159 160 161 162
          163 164 165 166 167 168
          169 170 171 172 173 174
          175 176 177 178 179 180
          181 182 183 184 185 186
          187 188 189 190 191 192
          193 194 195 196 197 198
          199 200 201 202 203 204
          205 206 207 208 209 210
          211 212 213 214 215 216
          217 218 219 220 221 222
          223 224 225 226 227 228
          229 230 231 232 233 234
          235 236 237 238 239 240
          241 242 243 244 245 246
          247 248 249 250 251 252
          253 254
        </DataArray>
        <DataArray type="UInt8" Name="types" format="ascii" RangeMin="1" RangeMax="1">
          1 1 1 1 1 1
          1 1 1 1 1 1
          1 1 1 1 1 1
          1 1 1 1 1 1
          1 1 1 1 1 1
          1 1 1 1 1 1
          1 1 1 1 1 1
          1 1 1 1 1 1
          1 1 1 1 1 1
          1 1 1 1 1 1
          1 1 1 1 1 1
          1 1 1 1 1 1
          1 1 1 1 1 1
          1 1 1 1 1 1
          1 1 1 1 1 1
          1 1 1 1 1 1
          1 1 1 1 1 1
          1 1 1 1 1 1
          1 1 1 1 1 1
          1 1 1 1 1 1
          1 1 1 1 1 1
          1 1 1 1 1 1
          1 1 1 1 1 1
          1 1 1 1 1 1
          1 1 1 1 1 1
          1 1 1 1 1 1
          1 1 1 1 1 1
          1 1 1 1 1 1
          1 1 1 1 1 1
          1 1 1 1 1 1
          1 1 1 1 1 1
          1 1 1 1 1 1
          1 1 1 1 1 1
          1 1 1 1 1 1
          1 1 1 1 1 1
          1 1 1 1 1 1
          1 1 1 1 1 1
          1 1 1 1 1 1
          1 1 1 1 1 1
          1 1 1 1 1 1
          1 1 1 1 1 1
          1 1 1 1 1 1
          1 1
        </DataArray>
      </Cells>
    </Piece>
  </UnstructuredGrid>
</VTKFile>
