<?xml version="1.0"?>
<VTKFile type="UnstructuredGrid" version="0.1" byte_order="LittleEndian" header_type="UInt32" compressor="vtkZLibDataCompressor">
  <UnstructuredGrid>
    <Piece NumberOfPoints="788" NumberOfCells="788">
      <PointData>
        <DataArray type="Int32" Name="id" format="ascii" RangeMin="1" RangeMax="788">
          668 298 477 529 133 623
          206 624 530 459 19 59
          134 531 244 385 308 625
          626 406 669 50 666 174
          343 592 589 123 484 241
          485 318 49 457 97 495
          42 324 22 131 15 44
          118 474 3 264 196 605
          550 745 748 766 75 203
          460 40 276 93 430 245
          386 1 593 627 369 266
          594 407 408 256 78 671
          629 150 117 461 370 670
          628 175 672 54 362 497
          475 532 674 595 286 109
          533 675 711 24 7 257
          387 215 673 124 363 534
          225 106 389 633 119 433
          434 371 388 207 62 561
          373 676 176 432 634 677
          141 597 499 246 372 329
          596 562 535 435 20 84
          267 713 501 154 712 498
          310 598 258 630 436 309
          220 500 502 208 374 277
          632 161 631 198 344 536
          61 478 504 166 678 299
          503 188 137 462 680 679
          390 311 749 750 751 752
          313 121 507 636 312 209
          635 32 505 537 506 411
          391 268 682 77 51 599
          479 177 681 226 563 330
          600 601 275 148 314 410
          85 409 508 538 325 60
          235 714 463 105 690 315
          186 540 81 221 539 67
          300 437 227 151 92 167
          129 565 438 345 541 375
          18 57 542 637 458 509
          192 14 160 216 364 145
          135 464 412 715 602 543
          301 569 82 716 480 346
          718 393 26 283 683 717
          269 228 571 113 89 12
          288 348 746 753 754 755
          756 757 759 765 764 511
          544 566 316 510 37 317
          719 376 210 481 111 638
          229 247 34 270 366 641
          222 413 513 90 350 512
          439 365 567 545 546 367
          640 168 142 603 331 79
          392 187 199 101 642 349
          236 351 643 604 514 2
          259 217 649 684 332 157
          568 126 564 686 35 46
          560 69 440 394 644 278
          483 515 115 622 287 496
          86 482 720 685 289 271
          182 414 237 416 72 149
          415 441 200 721 645 333
          136 691 547 687 517 352
          39 48 120 646 13 384
          353 516 181 647 590 23
          158 688 211 465 204 189
          549 689 96 341 30 648
          548 570 99 95 354 230
          710 347 304 242 155 442
          763 761 762 758 58 127
          279 43 692 418 466 110
          723 56 417 572 218 355
          190 73 405 476 38 573
          722 280 395 6 223 574
          33 575 377 650 248 179
          47 368 159 243 146 305
          41 87 116 91 17 173
          88 265 169 102 306 197
          747 767 518 107 238 606
          607 357 396 724 576 486
          693 356 725 11 290 162
          334 419 420 487 191 608
          249 66 694 726 651 488
          103 489 272 138 319 551
          467 212 45 284 130 10
          152 36 768 769 770 771
          772 695 185 652 285 398
          250 397 655 25 519 577
          443 609 696 335 163 610
          55 74 444 239 80 147
          291 727 193 468 730 378
          612 260 611 5 552 422
          697 326 320 108 578 423
          653 446 183 140 654 445
          424 273 728 591 4 379
          164 613 579 261 132 490
          700 184 342 302 520 231
          729 292 447 698 9 614
          336 448 293 76 213 294
          52 731 491 492 470 195
          699 521 469 139 224 773
          774 775 776 777 778 779
          780 701 449 743 742 21
          64 471 429 104 125 450
          580 639 656 65 251 734
          68 281 709 321 733 29
          667 581 527 156 122 399
          702 262 736 170 735 451
          327 553 380 657 421 282
          381 737 232 554 472 328
          658 400 452 358 522 703
          295 28 219 555 178 8
          401 523 582 337 583 738
          94 83 205 615 114 382
          338 661 53 255 705 556
          659 253 425 704 234 63
          274 454 618 453 359 660
          233 201 144 584 263 402
          617 426 165 706 404 663
          664 153 31 431 252 383
          70 585 403 455 665 616
          296 558 194 172 240 708
          741 557 27 360 619 171
          427 473 739 214 662 71
          528 586 100 740 707 303
          322 112 361 428 98 180
          254 128 16 620 744 339
          524 621 323 143 525 526
          588 587 559 493 494 340
          732 307 297 456 202 781
          782 783 784 785 786 787
          788 760
        </DataArray>
        <DataArray type="Int32" Name="type" format="ascii" RangeMin="1" RangeMax="2">
          2 2 2 2 2 2
          2 2 2 2 1 1
          1 2 2 2 2 2
          2 2 2 1 1 2
          2 2 1 1 2 1
          2 2 1 1 1 1
          1 1 1 1 1 1
          1 1 1 1 1 2
          2 1 2 2 2 1
          2 1 2 1 1 2
          2 1 2 2 2 2
          2 2 2 2 2 2
          2 1 1 2 2 2
          2 2 2 1 1 2
          1 2 2 2 2 2
          2 2 2 1 1 2
          2 1 2 2 1 2
          2 2 2 2 1 2
          2 2 2 2 2 2
          2 2 2 2 2 2
          2 2 2 2 2 2
          2 2 2 2 1 1
          2 2 2 2 2 2
          2 2 2 2 2 2
          2 2 2 2 2 2
          2 2 2 2 2 2
          2 2 2 1 2 2
          2 2 2 2 2 2
          2 2 2 2 2 2
          2 2 2 2 2 2
          2 1 2 2 2 2
          2 2 2 2 1 2
          2 2 2 2 2 2
          2 2 1 2 2 2
          1 2 2 2 1 1
          2 2 2 2 2 2
          1 2 1 2 2 2
          2 2 2 1 1 1
          1 2 2 2 2 2
          1 1 2 2 1 2
          1 1 1 1 1 1
          2 2 2 2 2 2
          2 2 1 2 2 2
          2 2 1 1 2 2
          2 2 2 2 1 1
          2 2 1 2 2 2
          2 2 2 2 2 2
          2 2 2 2 1 2
          2 2 2 2 2 2
          2 2 1 2 1 2
          2 2 2 1 2 2
          2 1 2 2 2 1
          2 1 2 2 2 2
          2 1 2 1 2 2
          2 2 2 2 2 1
          2 1 2 2 2 2
          2 1 2 2 1 1
          1 2 2 2 2 2
          2 2 1 1 2 1
          1 2 2 2 2 2
          2 2 2 2 2 2
          2 2 2 2 2 2
          2 2 2 2 2 2
          1 1 1 2 1 1
          2 2 2 2 1 1
          2 2 2 2 1 2
          2 2 1 1 1 2
          2 2 1 1 2 2
          1 2 1 1 2 2
          2 2 2 2 1 2
          2 1 2 2 2 1
          2 1 2 2 1 2
          2 2 1 1 1 2
          2 2 2 1 2 2
          1 2 2 2 2 1
          1 1 2 1 1 1
          1 1 1 1 1 1
          1 1 1 1 1 1
          1 2 2 2 2 2
          2 2 2 2 2 2
          2 2 2 1 2 2
          2 2 2 2 2 2
          2 2 2 2 2 2
          1 2 2 2 2 2
          2 2 1 1 1 1
          1 1 2 2 2 2
          2 2 2 2 1 2
          2 2 2 1 2 2
          2 2 2 2 2 2
          1 2 2 2 1 1
          2 2 1 2 2 2
          2 2 2 1 2 2
          2 1 2 2 2 2
          2 2 2 1 2 2
          2 2 2 1 1 2
          2 2 2 2 2 2
          2 2 1 2 2 2
          2 2 2 2 1 2
          2 2 2 2 2 2
          1 2 2 2 2 2
          2 2 2 2 1 2
          2 2 2 2 2 2
          2 2 2 2 2 1
          2 2 2 1 2 2
          2 2 2 2 2 2
          2 2 2 2 2 1
          1 2 1 2 2 2
          2 2 2 2 2 2
          1 2 2 2 2 2
          2 2 2 2 2 1
          2 2 2 2 2 2
          2 1 1 2 2 1
          2 2 2 2 2 2
          1 1 1 2 2 2
          2 2 1 1 2 2
          2 2 2 2 2 2
          2 2 2 2 2 2
          2 2 2 2 2 2
          2 2 2 2 2 2
          2 1 1 1 2 2
          2 2 2 2 2 2
          2 2 1 2 2 2
          2 2 1 2 2 2
          2 2 2 2 2 2
          1 2 1 2 2 2
          2 2 2 2 1 2
          2 2 1 2 2 2
          2 2 2 2 2 2
          2 2 2 2 2 2
          2 1 2 2 2 2
          2 2 2 2 2 2
          2 2
        </DataArray>
        <DataArray type="Float64" Name="diameter" format="ascii" RangeMin="7.9365289306e-07" RangeMax="1.9657632103e-06">
          8.9406470531e-07 9.6897995973e-07 1.0548997576e-06 1.0436075161e-06 9.0403074849e-07 8.6445227568e-07
          1.0610246084e-06 8.906288561e-07 9.5528655097e-07 9.9202300892e-07 1.9180980206e-06 1.604113704e-06
          1.861118177e-06 9.971743598e-07 9.7554752986e-07 9.7163981274e-07 1.0325271088e-06 8.9268059855e-07
          9.0702246021e-07 8.2210007911e-07 9.0504109443e-07 1.535324339e-06 1.5542809537e-06 9.5088236431e-07
          9.4175208215e-07 9.513766413e-07 1.5143455324e-06 1.6759792858e-06 1.0196002582e-06 1.6517944637e-06
          1.0646390578e-06 1.0054255839e-06 1.6513112296e-06 1.604569746e-06 1.8212814374e-06 1.5855614188e-06
          1.7288395302e-06 1.6421359452e-06 1.5824243856e-06 1.811709705e-06 1.9147982204e-06 1.8115210821e-06
          1.6674651993e-06 1.6712323645e-06 1.7652567389e-06 1.6759039016e-06 1.7479482039e-06 9.5909425376e-07
          1.0157961327e-06 1.6016997963e-06 9.0499228867e-07 8.6569847602e-07 9.3587737236e-07 1.680963811e-06
          1.0263732517e-06 1.5988459066e-06 9.2952122441e-07 1.8534437432e-06 1.6885754909e-06 9.4624656414e-07
          9.6943847704e-07 1.9523498334e-06 9.6071152493e-07 9.5504487738e-07 8.808347875e-07 9.7340788127e-07
          9.041305924e-07 9.2604111196e-07 1.052177623e-06 8.4024488957e-07 8.3370937983e-07 8.5203682952e-07
          9.3491153282e-07 1.7930285357e-06 1.6601849201e-06 1.0458379826e-06 9.9523824104e-07 9.49396763e-07
          8.7714824535e-07 9.409066302e-07 8.4999581194e-07 1.7099433873e-06 1.6241874688e-06 1.0133068748e-06
          1.59408179e-06 9.9853935325e-07 8.9503794329e-07 9.3287070691e-07 9.0603851883e-07 1.0485866863e-06
          1.0153353079e-06 9.3162218438e-07 8.4640754029e-07 1.9047533399e-06 1.8132908747e-06 1.0473922309e-06
          8.9381867881e-07 1.7215066603e-06 9.1439136913e-07 9.6091540665e-07 1.6351723737e-06 9.7148037801e-07
          9.108328171e-07 9.2487838498e-07 8.4849081851e-07 9.3459098975e-07 1.8666099711e-06 1.0409027389e-06
          8.5922415231e-07 8.6913605527e-07 8.7053067767e-07 9.8941778414e-07 9.1611279855e-07 9.5291669408e-07
          9.0028496333e-07 9.2688167017e-07 8.6832255957e-07 8.9999865248e-07 9.6043281537e-07 9.2249245698e-07
          9.0842623614e-07 9.605205363e-07 9.6252172266e-07 1.0085645166e-06 1.0359197829e-06 1.0179811506e-06
          9.9777691208e-07 9.9911358514e-07 9.2705597851e-07 1.0481203443e-06 1.6992673755e-06 1.8701365499e-06
          8.4416299282e-07 8.6196813123e-07 1.0541604395e-06 9.3652640565e-07 8.7590851167e-07 1.0450927401e-06
          1.0545869661e-06 9.5518698583e-07 8.5758803142e-07 9.6893227876e-07 9.0676614337e-07 1.0590144498e-06
          1.0602556459e-06 9.928921743e-07 1.008700374e-06 1.0471417782e-06 9.3041410629e-07 9.2208572565e-07
          9.175506328e-07 9.4562259637e-07 8.995198103e-07 9.9260294911e-07 8.8156422469e-07 9.1938576123e-07
          1.0305550577e-06 8.3272440907e-07 1.0429466567e-06 1.804506655e-06 9.3424169896e-07 1.0500434307e-06
          9.8080808416e-07 9.0517625369e-07 1.0052889333e-06 1.0113532172e-06 9.1840074221e-07 8.8853124923e-07
          8.856254488e-07 1.0125341431e-06 8.698724967e-07 8.6586808945e-07 8.0575501622e-07 8.8351261138e-07
          9.7757161231e-07 8.1294125326e-07 1.046741388e-06 8.6451663891e-07 1.0179045216e-06 9.8073336676e-07
          8.5762380248e-07 1.7392846463e-06 8.9895317174e-07 9.8851853792e-07 9.5928527444e-07 9.6877144722e-07
          8.6051738233e-07 8.9048432329e-07 9.0424541777e-07 9.8737663311e-07 1.6691070893e-06 9.5334427402e-07
          1.0536290333e-06 1.0434266316e-06 9.296460876e-07 9.2554458217e-07 9.8805566344e-07 9.402914331e-07
          9.4341246021e-07 9.533444552e-07 1.6852527347e-06 9.3037549798e-07 1.0618057397e-06 8.363865236e-07
          1.7487428453e-06 9.294797299e-07 9.7072908782e-07 9.37866945e-07 1.7015499911e-06 1.6430480329e-06
          7.9456001421e-07 8.6390314448e-07 1.0245162067e-06 1.0486121511e-06 8.8946934393e-07 8.8961339156e-07
          1.8468848646e-06 9.8473273243e-07 1.9043010078e-06 9.7160748442e-07 1.0336769072e-06 9.5951056876e-07
          1.0190176919e-06 8.6861682421e-07 8.6885729106e-07 1.8079100911e-06 1.6701755891e-06 1.8027812739e-06
          1.9089433241e-06 9.4481032384e-07 8.4947944563e-07 9.9295750682e-07 9.974840178e-07 8.4288097885e-07
          1.8276615907e-06 1.6706369856e-06 9.3738176701e-07 8.9166225779e-07 1.6504714821e-06 9.9688955683e-07
          1.7548900994e-06 1.8909960986e-06 1.7961601972e-06 1.6761761008e-06 1.6624472092e-06 1.7672109107e-06
          9.4192269733e-07 1.0567584734e-06 9.4374435981e-07 9.2334306285e-07 9.1749245731e-07 9.6547131125e-07
          1.0313964408e-06 9.4236046213e-07 1.8734461692e-06 8.878014135e-07 9.9425884755e-07 1.0320161222e-06
          8.6276779246e-07 8.843243204e-07 1.855082818e-06 1.7428623141e-06 8.7890551305e-07 8.8722893339e-07
          8.6537806705e-07 9.7835078165e-07 1.0054513463e-06 9.7075893359e-07 1.6261418907e-06 1.9485404781e-06
          8.6424309919e-07 1.0310156253e-06 1.4899584179e-06 8.8113316076e-07 8.1006637873e-07 8.6303250549e-07
          8.9772106999e-07 8.2626836957e-07 8.8242420798e-07 8.9640848334e-07 8.7189949157e-07 1.0002248111e-06
          1.0230258127e-06 9.5070004798e-07 1.0350491508e-06 8.3340736619e-07 1.6716942861e-06 8.354929828e-07
          8.3514288528e-07 1.0062184242e-06 9.9316522313e-07 1.0337604658e-06 9.9325793155e-07 9.230841949e-07
          9.4100155305e-07 8.9099299277e-07 1.6523741881e-06 9.7444208785e-07 1.6770962273e-06 9.29606513e-07
          9.4614774737e-07 9.0402031356e-07 9.7001586886e-07 1.7498427722e-06 1.0198188628e-06 1.0463652784e-06
          1.0526305236e-06 1.6639588832e-06 1.0165929654e-06 9.8623957143e-07 1.014033717e-06 1.586287723e-06
          8.7802768807e-07 1.8019133339e-06 9.0092475617e-07 9.6165066949e-07 9.8820264147e-07 8.9320628569e-07
          9.8851028663e-07 1.8480465019e-06 8.6447550179e-07 1.6743038878e-06 9.764432914e-07 9.3736210023e-07
          1.0541856466e-06 9.3484534238e-07 8.8896050078e-07 9.5219862569e-07 9.8979700509e-07 1.5515685188e-06
          9.0556364519e-07 1.6746985515e-06 8.7449982777e-07 9.3164463547e-07 1.0577504392e-06 9.4981467402e-07
          9.6433417934e-07 1.9044214425e-06 9.4594081143e-07 9.3396025249e-07 1.8534475895e-06 1.7492749453e-06
          1.5322165884e-06 1.061801191e-06 9.6785788031e-07 8.9950123439e-07 9.1148024133e-07 9.2753578709e-07
          9.7713440147e-07 1.0539639625e-06 1.9116999002e-06 1.6292333482e-06 1.0268822382e-06 1.5187296598e-06
          1.8725442307e-06 1.031039844e-06 8.7514600327e-07 8.9167713312e-07 9.1629840708e-07 8.8480852274e-07
          9.9243623894e-07 8.2868567676e-07 1.0105734177e-06 8.5595322034e-07 8.7273364863e-07 1.0451449087e-06
          8.9025771916e-07 1.0333154564e-06 8.8875864887e-07 8.4319576976e-07 9.3579058661e-07 8.6672481476e-07
          9.0108408175e-07 9.2105235049e-07 9.6742617747e-07 9.3551699804e-07 1.0030407164e-06 1.0546008359e-06
          1.8114382797e-06 1.7105240733e-06 1.9381200159e-06 9.6870207704e-07 1.6567494284e-06 1.729393003e-06
          8.6175932266e-07 9.9972313606e-07 8.7710281928e-07 9.8137026574e-07 1.6834026342e-06 1.6570268889e-06
          9.1773611521e-07 9.3094830191e-07 8.7526978027e-07 1.0315829308e-06 1.7393127572e-06 8.2005099721e-07
          9.1841283717e-07 9.2757113284e-07 1.5689546205e-06 1.6889521606e-06 1.5805769939e-06 8.9334014714e-07
          9.2119453734e-07 9.5287456694e-07 1.4938560907e-06 1.7690817085e-06 1.0490417424e-06 9.8138421099e-07
          1.5857419216e-06 1.0405632192e-06 1.7286638308e-06 1.7141241514e-06 8.1046584176e-07 8.8800423626e-07
          8.7916743622e-07 8.5696153134e-07 7.9365289306e-07 8.6408902713e-07 1.9485405496e-06 9.4591619422e-07
          1.0343048819e-06 1.8037705884e-06 9.2278667303e-07 8.6261669936e-07 8.9051228682e-07 1.9632526967e-06
          8.779055942e-07 1.6429475923e-06 8.3262936121e-07 9.2256573722e-07 1.7319503567e-06 1.0074085743e-06
          8.9263177981e-07 1.0372696014e-06 1.667528595e-06 1.5438123612e-06 1.6579742204e-06 9.5848689138e-07
          8.3723430978e-07 9.0931634597e-07 8.5166465185e-07 1.6716943257e-06 1.0416965363e-06 9.5330317535e-07
          1.702435334e-06 9.759142009e-07 8.7808504902e-07 9.6679263619e-07 9.8682272574e-07 1.7839040076e-06
          1.7538566304e-06 1.6639589328e-06 1.0154574646e-06 1.6525171995e-06 1.7672109767e-06 1.7296521006e-06
          1.6732157883e-06 1.8843606637e-06 1.4962922654e-06 1.7302376479e-06 1.8729094595e-06 1.7789805774e-06
          1.8538289454e-06 1.6993720388e-06 1.7889791199e-06 1.9324903095e-06 1.705738583e-06 1.827341124e-06
          1.6371726194e-06 8.7031704589e-07 1.0262639481e-06 1.0121392042e-06 8.9434095527e-07 9.1440142781e-07
          9.3903822355e-07 9.9342339986e-07 9.5322679781e-07 8.6202653889e-07 9.9277240132e-07 9.8701306217e-07
          9.3892139204e-07 8.7680072697e-07 9.2687574631e-07 1.9568045335e-06 7.9643715269e-07 9.2837673288e-07
          9.1202007405e-07 9.0697465279e-07 9.5317516264e-07 1.0243124612e-06 9.3019168452e-07 9.5393769246e-07
          9.1747482113e-07 8.2931608995e-07 8.4560126769e-07 8.3182540116e-07 9.3199150288e-07 1.015528561e-06
          1.6683451559e-06 1.0475186477e-06 8.4449781736e-07 1.0606286534e-06 9.4045832213e-07 1.035284573e-06
          8.4190469196e-07 8.8265551546e-07 1.7679506204e-06 1.752563781e-06 1.6448982066e-06 1.8288987117e-06
          1.9164603418e-06 1.7796360905e-06 9.0632833497e-07 8.2029757313e-07 8.6255827426e-07 8.8196935772e-07
          8.3310165113e-07 8.4671441363e-07 1.0090664225e-06 9.3657496231e-07 1.6245546117e-06 9.3856203271e-07
          9.5597528643e-07 9.0970416975e-07 8.8129380417e-07 1.9657632103e-06 1.0607116443e-06 9.0347121148e-07
          9.3975103044e-07 9.635584764e-07 8.4055395253e-07 9.9249884466e-07 1.0095444861e-06 8.9143402817e-07
          1.7912465222e-06 9.5992885663e-07 1.0303755671e-06 9.808150228e-07 1.8389713279e-06 1.7458293244e-06
          1.0129343633e-06 8.6461286539e-07 1.7362871364e-06 1.0285100892e-06 8.919030037e-07 9.2229872698e-07
          9.6552423566e-07 9.6711495382e-07 9.0521136777e-07 1.7292310752e-06 9.8369909468e-07 8.3305023614e-07
          8.8073416649e-07 1.6417017549e-06 8.9048497229e-07 9.3380335714e-07 1.0050763486e-06 9.6153352861e-07
          9.2536325084e-07 9.2135671177e-07 9.3208405343e-07 1.9318032032e-06 9.3671844155e-07 8.6881629338e-07
          1.0571917398e-06 9.0933654791e-07 9.125750295e-07 1.5484154031e-06 1.8444763451e-06 9.7763995474e-07
          9.1285686339e-07 9.1974777685e-07 9.4489357131e-07 8.2558268676e-07 8.9321340772e-07 9.805388289e-07
          8.5938350261e-07 8.5424235324e-07 1.5701484161e-06 1.0022359989e-06 9.8055260619e-07 1.0617373421e-06
          8.8002367715e-07 8.5105820065e-07 1.0582200644e-06 9.2285777503e-07 1.8697441864e-06 9.2224407974e-07
          9.6924518468e-07 7.9611453869e-07 8.7842095207e-07 8.580626471e-07 1.0434460639e-06 8.5323470164e-07
          1.7876852785e-06 8.6708581705e-07 8.8875023221e-07 9.8304694237e-07 8.3220212219e-07 8.8758438111e-07
          9.0115259236e-07 1.011555508e-06 1.0519993047e-06 8.0541655653e-07 1.7249488714e-06 8.9483499494e-07
          8.0489194456e-07 8.7816915613e-07 8.9947742489e-07 8.35594508e-07 8.4862542525e-07 8.6424505136e-07
          9.0016947342e-07 9.0042737992e-07 8.2651942184e-07 8.3220123432e-07 9.3313080342e-07 1.5814197947e-06
          9.0302419677e-07 9.030595772e-07 9.0581291365e-07 1.5889237139e-06 8.7864586693e-07 8.5766151497e-07
          9.217109732e-07 9.6580144845e-07 9.4780104882e-07 8.4945075731e-07 8.9163899729e-07 8.8607326328e-07
          8.7693194436e-07 8.7880314283e-07 9.0305351257e-07 1.0202541828e-06 8.6176425535e-07 1.7175334414e-06
          1.5815713241e-06 9.8359865984e-07 1.6497880608e-06 9.8329671804e-07 9.1863750688e-07 8.7409939047e-07
          9.0980695977e-07 8.8743294018e-07 8.4651530432e-07 8.7613446129e-07 8.5755429274e-07 8.8133822979e-07
          1.6491468938e-06 1.0379080634e-06 9.3416153017e-07 9.6881692774e-07 1.0502216167e-06 8.8134309753e-07
          8.6793952959e-07 8.940075332e-07 1.0005104506e-06 9.5173166776e-07 1.0192223521e-06 1.5960055504e-06
          9.0345998641e-07 9.0173516611e-07 1.0345416304e-06 9.1629845847e-07 1.0143735349e-06 8.9420467949e-07
          8.2593362893e-07 1.7663552884e-06 1.7219619365e-06 9.8021859218e-07 9.8808771905e-07 1.8128802508e-06
          8.7754789878e-07 9.897029687e-07 9.5497920515e-07 9.8540011498e-07 9.9364354934e-07 9.2059128181e-07
          1.8161746853e-06 1.8899262618e-06 1.7242444957e-06 9.0768838179e-07 9.1152857538e-07 9.5375105396e-07
          1.0144310124e-06 9.6084086005e-07 1.6704721966e-06 1.7028417472e-06 9.442385075e-07 1.0010802142e-06
          9.6822448628e-07 9.641792846e-07 1.0571187854e-06 9.1402191654e-07 8.7240723728e-07 9.2847646724e-07
          9.6369308719e-07 9.999604157e-07 9.6041988479e-07 1.0422298031e-06 9.3375670836e-07 8.8077215916e-07
          9.8252963371e-07 9.6197017068e-07 9.549625564e-07 9.9609649871e-07 8.640306694e-07 9.5511124612e-07
          9.0557797535e-07 8.8070386158e-07 8.9582388277e-07 8.7159042521e-07 9.3610428308e-07 8.4214698942e-07
          8.832183128e-07 1.823601874e-06 1.5973408694e-06 1.6185779946e-06 9.2744416642e-07 8.3661888034e-07
          9.27708381e-07 9.9117806132e-07 8.4913315209e-07 8.4530776649e-07 9.77399708e-07 9.2910563382e-07
          9.1917177578e-07 1.047073945e-06 1.7005238089e-06 8.7214916383e-07 9.0074088465e-07 8.8934807482e-07
          8.1493945686e-07 1.0366859003e-06 1.7695892464e-06 9.3015455996e-07 9.4611599186e-07 9.2230104994e-07
          8.677403553e-07 1.0561526151e-06 8.3216132929e-07 9.9509571869e-07 9.3828610958e-07 1.0526323583e-06
          1.6283888341e-06 9.8573552789e-07 1.943470349e-06 8.9873615423e-07 9.5040064482e-07 8.4710425703e-07
          9.1180197798e-07 9.6313032261e-07 9.1744170649e-07 9.1442803089e-07 1.646964242e-06 1.0287073354e-06
          9.7542091427e-07 8.4294427495e-07 1.875010767e-06 8.8655898794e-07 8.4901651404e-07 9.9807768978e-07
          1.0439205317e-06 9.7315683152e-07 9.1637669974e-07 1.0297678255e-06 9.4851103816e-07 1.014043497e-06
          9.6768369396e-07 9.5746718081e-07 9.4661935325e-07 8.8072947217e-07 1.0472206109e-06 9.3360607814e-07
          9.2189139847e-07 1.7393942924e-06 1.0207707875e-06 8.4029337727e-07 9.8273507644e-07 8.0312545302e-07
          8.7052325693e-07 8.4354770576e-07 8.346461555e-07 8.1511863842e-07 8.3384602933e-07 8.5831217728e-07
          8.0963974976e-07 8.6277497148e-07
        </DataArray>
      </PointData>
      <CellData>
      </CellData>
      <Points>
        <DataArray type="Float32" Name="Points" NumberOfComponents="3" format="ascii" RangeMin="9.7027272642e-06" RangeMax="0.00013275217918">
          1.8510094378e-05 2.3387938199e-05 4.66231171e-07 2.0074763597e-05 2.3606567993e-05 4.796685289e-07
          1.8859745978e-05 2.249861609e-05 5.1930175005e-07 1.9981614969e-05 2.2664162316e-05 7.4342517564e-07
          1.9217921363e-05 2.3925027563e-05 5.6146757288e-07 2.0304663849e-05 2.1941001251e-05 1.2393776387e-06
          1.8124268536e-05 2.2818077923e-05 1.1545566849e-06 2.0699862944e-05 2.3399066777e-05 1.1010594108e-06
          1.8098320652e-05 2.3981849154e-05 1.3193141513e-06 1.9668184905e-05 2.3654934921e-05 1.3415029798e-06
          4.9561876949e-06 8.6039972302e-06 1.8620859237e-06 4.1214134399e-05 1.5594381694e-05 1.6732545873e-06
          1.2815120499e-05 1.70887688e-05 1.7139129795e-06 1.876665192e-05 2.2289104891e-05 1.7196227873e-06
          1.9540431822e-05 2.2820995582e-05 1.9160897864e-06 2.0433073587e-05 2.272319216e-05 1.6325286651e-06
          1.8769205781e-05 2.3400589271e-05 1.6866154056e-06 2.1051688236e-05 2.2952421205e-05 2.2817710033e-06
          1.981841524e-05 2.3636885089e-05 2.2702965907e-06 2.0444900656e-05 2.3922977562e-05 2.4293503884e-06
          4.9629332352e-05 1.2306274584e-05 2.9816849292e-06 1.3306731489e-05 1.5428926417e-05 1.8265350263e-06
          4.006969175e-05 1.5442585209e-05 2.7289556783e-06 2.0436365958e-05 2.2947797333e-05 2.9467732929e-06
          1.8896544134e-05 2.3025771952e-05 2.5750221084e-06 1.9185035853e-05 2.3852648155e-05 2.8841277526e-06
          5.5504751799e-06 7.2557595558e-06 3.26941813e-06 4.2735623538e-06 8.0570898717e-06 3.8204875636e-06
          4.9654114264e-05 1.411480207e-05 3.5385207866e-06 4.1323142796e-05 1.487384543e-05 3.7446197894e-06
          4.9584308726e-05 1.2420525309e-05 4.0144236664e-06 4.9721089454e-05 1.3001228581e-05 4.837169854e-06
          3.1817322451e-05 8.7819116743e-06 5.1217698456e-06 1.4430530655e-06 9.2227464847e-06 5.4827360145e-06
          4.1567280277e-05 1.5736279238e-05 5.240563496e-06 3.1037998269e-05 7.5503189692e-06 5.7944621403e-06
          1.7996519091e-05 5.3870016927e-06 6.2920512391e-06 1.64406556e-05 5.9983908614e-06 6.0536449382e-06
          1.4559645933e-05 8.308867109e-06 6.9674110819e-06 3.2143700082e-05 9.155754924e-06 6.826801382e-06
          2.0586569462e-06 1.0922634829e-05 6.9470083872e-06 2.5863420888e-05 1.6637013687e-05 6.5195445131e-06
          1.4896858147e-06 9.2439750006e-06 7.1067925091e-06 1.4642560927e-05 9.5851000879e-06 7.9384326455e-06
          4.6099794417e-05 1.0776147064e-05 7.8555258369e-06 4.6686385758e-05 1.2385934497e-05 8.0401259765e-06
          2.5344792448e-05 1.6957905245e-05 8.1742537077e-06 4.9952468544e-05 1.2859842172e-05 1.6775313725e-06
          4.9999573093e-05 1.3860879335e-05 5.2397599575e-06 1.3495735402e-05 1.5515885025e-05 3.3814785638e-06
          2.1262439986e-05 2.3863862225e-05 2.2174738206e-06 4.9850859796e-05 1.4113815269e-05 2.7692412914e-06
          2.105893509e-05 2.4147169825e-05 7.3466662798e-07 1.3706207028e-05 3.8497390051e-05 8.9779877044e-07
          2.0624080207e-05 2.4505121473e-05 1.5171214045e-06 1.4511339032e-05 3.9870606997e-05 1.6771732589e-06
          2.0014198526e-05 2.4511991796e-05 2.2600193006e-06 1.4059789464e-05 3.849345012e-05 2.6367092687e-06
          1.4547956198e-05 4.1070099542e-05 2.8128365557e-06 4.4946627895e-05 4.1239120037e-05 2.9245311453e-06
          4.6669651056e-05 4.1294086259e-05 2.8324088817e-06 2.9358538086e-05 4.0717528464e-05 3.2852090044e-06
          4.5827466238e-05 4.0902599721e-05 2.994806664e-06 4.5242941269e-05 3.9829857997e-05 3.7450570289e-06
          4.4776363211e-05 4.0583650843e-05 3.5263578866e-06 4.5381544624e-05 4.1193598008e-05 3.8399753066e-06
          4.6343331633e-05 4.107478162e-05 3.7275135583e-06 4.6658136853e-05 4.1888935812e-05 3.5272889818e-06
          4.537969653e-05 4.2181756726e-05 3.7242498365e-06 4.4386222726e-05 3.9892125642e-05 4.8232227527e-06
          4.6892826504e-05 4.0422855818e-05 4.4379939936e-06 4.6229135478e-05 4.2453648348e-05 4.0484542296e-06
          4.6748364184e-06 3.1525356462e-05 4.9567233873e-06 3.9028072933e-05 3.9152910176e-05 4.9632844821e-06
          2.9850925785e-05 4.0301416448e-05 4.9506229516e-06 4.5472312195e-05 4.0271464968e-05 4.6759550969e-06
          4.4577540393e-05 4.0696646465e-05 4.8778097153e-06 4.6207813284e-05 4.0936094592e-05 4.6169398047e-06
          4.5308141125e-05 4.124210318e-05 4.7361245379e-06 4.709256973e-05 4.1816863813e-05 4.9580116865e-06
          4.637089296e-05 4.2330924771e-05 4.8617971515e-06 3.1796676922e-05 4.8468100431e-05 4.9532186495e-06
          3.0279663406e-05 4.9064223276e-05 4.7207659009e-06 4.9346563173e-06 3.2987030863e-05 5.3798185036e-06
          2.8974478482e-05 3.9054157241e-05 5.4659035413e-06 4.4443244406e-05 4.1697760025e-05 5.0044654927e-06
          4.6352484787e-05 4.1687362682e-05 5.4650795391e-06 4.5570155635e-05 4.2379120714e-05 5.2116961342e-06
          4.7894664021e-06 3.1547529943e-05 5.8484633882e-06 4.2346059672e-06 3.2423868106e-05 5.8586679188e-06
          4.1534099182e-06 3.3445434383e-05 5.8007235566e-06 5.6351072999e-06 3.3335705666e-05 5.9241724557e-06
          4.9940495046e-06 3.4271852201e-05 5.8879650169e-06 3.9586229832e-05 3.7607493141e-05 5.7981069403e-06
          1.7192214727e-05 3.9755341277e-05 5.5131404224e-06 4.5640401368e-05 4.0093178541e-05 5.662341664e-06
          4.6175569878e-05 4.0966540837e-05 5.9471331042e-06 1.7793929146e-05 4.1406630771e-05 5.7024990383e-06
          4.4660275307e-05 4.1112038161e-05 5.7021757129e-06 4.5460910769e-05 4.1551025788e-05 5.6406884141e-06
          4.6014879445e-06 2.9499966331e-05 6.021966783e-06 4.3155337153e-06 3.467264105e-05 6.4303394538e-06
          3.6470981286e-05 3.9306902181e-05 6.4421874413e-06 3.7341560528e-05 3.9659462345e-05 6.2848671405e-06
          3.582962745e-05 4.0356691898e-05 6.1511227614e-06 4.531180457e-05 4.0556791646e-05 6.4631981331e-06
          3.1743995351e-05 4.9776164815e-05 6.1973605625e-06 4.418404842e-06 3.1537874747e-05 6.7316896093e-06
          3.73640205e-06 3.2179032132e-05 6.7349069468e-06 4.557140528e-06 3.2614880183e-05 6.7765222411e-06
          5.3884200497e-06 3.305282371e-05 6.7197015596e-06 4.3967170313e-06 3.3521981095e-05 6.7456207944e-06
          5.284812687e-06 3.3958669519e-05 6.6394095484e-06 6.4254249992e-06 3.351020132e-05 6.4866108005e-06
          6.0824081629e-06 3.4210694139e-05 6.9723801062e-06 3.626938269e-05 4.0204300603e-05 6.8639469646e-06
          4.4709406211e-05 4.1194463847e-05 6.5776548581e-06 4.5993263484e-05 4.1025148676e-05 6.8026952249e-06
          3.1350409699e-06 3.1663483242e-05 7.1229483183e-06 5.1956053539e-06 3.2117361116e-05 7.1131207733e-06
          3.3442408949e-06 3.29000286e-05 7.376575013e-06 6.0103548094e-06 3.2594904042e-05 7.1768399721e-06
          5.0901708164e-06 3.3518848795e-05 7.4281656453e-06 7.1052086241e-06 3.3511034417e-05 7.1627164289e-06
          4.4727580644e-06 3.4316919482e-05 7.3495625657e-06 3.7632184103e-05 3.8104197301e-05 7.3745218288e-06
          3.6386940337e-05 3.9291251596e-05 7.3741034612e-06 3.7147179683e-05 3.9967017074e-05 7.1413073783e-06
          3.8788071834e-05 3.9686361561e-05 7.3855048868e-06 3.6779580114e-05 4.1034702008e-05 7.0010491982e-06