<?xml version="1.0"?>
<VTKFile type="UnstructuredGrid" version="0.1" byte_order="LittleEndian" header_type="UInt32" compressor="vtkZLibDataCompressor">
  <UnstructuredGrid>
    <Piece NumberOfPoints="95" NumberOfCells="95">
      <PointData>
        <DataArray type="Int32" Name="id" format="ascii" RangeMin="1" RangeMax="95">
          75 50 19 59 42 49
          15 22 44 3 40 1
          78 24 7 54 20 62
          61 84 93 77 32 51
          85 60 81 67 18 82
          26 14 57 12 89 92
          64 37 34 46 86 79
          35 2 69 48 13 72
          39 23 30 90 95 43
          56 73 6 33 38 88
          87 17 47 41 58 10
          91 66 11 45 36 68
          55 25 80 5 74 4
          9 76 52 21 29 65
          28 8 83 53 63 27
          70 16 71 31 94
        </DataArray>
        <DataArray type="Int32" Name="type" format="ascii" RangeMin="1" RangeMax="2">
          2 1 1 1 1 1
          1 1 1 1 1 1
          2 1 1 1 1 2
          2 1 1 2 1 1
          1 1 1 2 1 1
          1 1 1 1 1 1
          2 1 1 1 1 2
          1 1 2 1 1 2
          1 1 1 1 1 1
          1 2 1 1 1 1
          1 1 1 1 1 1
          1 2 1 1 1 2
          1 1 1 1 2 1
          1 2 1 1 1 2
          1 1 1 1 2 1
          2 1 2 1 1
        </DataArray>
        <DataArray type="Float64" Name="diameter" format="ascii" RangeMin="7.5854160541e-07" RangeMax="1.9546094649e-06">
          8.6787118023e-07 1.7710273687e-06 1.8142231529e-06 1.933011572e-06 1.5550484311e-06 1.7818263208e-06
          1.8358210456e-06 1.5010536947e-06 1.6414400093e-06 1.5874452728e-06 1.516630854e-06 1.8466199989e-06
          9.2136839262e-07 1.7062336898e-06 1.6306410565e-06 1.8358210525e-06 1.5377458427e-06 9.929489484e-07
          9.9975643772e-07 1.6945521708e-06 1.6332344322e-06 9.4825921675e-07 1.5791060786e-06 1.5540182781e-06
          1.6588198585e-06 1.7926252601e-06 1.7124839292e-06 1.0027190865e-06 1.6522389493e-06 1.6953683603e-06
          1.6320796562e-06 1.7009043832e-06 1.5743287794e-06 1.7170326331e-06 1.5106034558e-06 1.5363487355e-06
          9.8566200693e-07 1.5377458301e-06 1.900614726e-06 1.5413585349e-06 1.6945521564e-06 7.5854160541e-07
          1.63064105e-06 1.8034242053e-06 8.4551330578e-07 1.8358210437e-06 1.8574189465e-06 9.7489540511e-07
          1.9546094649e-06 1.91141368e-06 1.5289757296e-06 1.6598632585e-06 1.6061589143e-06 1.6306410577e-06
          1.8682178896e-06 9.0692488485e-07 1.5377458328e-06 1.8574189458e-06 1.5623959639e-06 1.6776158144e-06
          1.6945521588e-06 1.6846357969e-06 1.9006147353e-06 1.5578436615e-06 1.7170326369e-06 1.6090431661e-06
          1.6412662126e-06 9.9899774943e-07 1.9006147325e-06 1.544249484e-06 1.7062336972e-06 9.1291318467e-07
          1.5784269352e-06 1.7170326346e-06 1.7393815763e-06 1.5550484292e-06 8.8512198355e-07 1.6522389546e-06
          1.7926252649e-06 9.9876050744e-07 1.6198421148e-06 1.49025474e-06 1.9006147191e-06 9.3327151332e-07
          1.554018273e-06 1.6306410479e-06 1.7124839249e-06 1.5166308571e-06 9.8045353507e-07 1.911413679e-06
          9.0958217321e-07 1.6522389564e-06 9.8933574941e-07 1.9222126389e-06 1.6332344357e-06
        </DataArray>
      </PointData>
      <CellData>
      </CellData>
      <Points>
        <DataArray type="Float32" Name="Points" NumberOfComponents="3" format="ascii" RangeMin="9.888468375e-06" RangeMax="0.00013124058025">
          1.9700000848e-05 2.3399999918e-05 9.4000000672e-07 1.3099999705e-05 1.6300000425e-05 2.140000106e-06
          4.9499999477e-06 8.130000424e-06 2.6800000796e-06 4.0999999328e-05 1.549999979e-05 3.310000011e-06
          1.7200000002e-05 5.7000002016e-06 6.1699997786e-06 3.1799998396e-05 8.6800000645e-06 6.1800001276e-06
          1.7700000399e-06 1.0099999599e-05 6.6200000219e-06 1.4600000213e-05 8.9300001491e-06 7.4399999903e-06
          2.5600000299e-05 1.6800000594e-05 7.3599999268e-06 4.6400000429e-05 1.1600000107e-05 7.9499995991e-06
          1.4433328943e-05 4.0164431994e-05 2.2417366381e-06 2.940000013e-05 4.0200000512e-05 4.269999863e-06
          4.5600001613e-05 4.110000009e-05 4.6999998631e-06 3.9300000935e-05 3.8400001358e-05 5.3700000535e-06
          1.7500000467e-05 4.059999992e-05 5.6099997892e-06 3.1399998988e-05 4.9300000683e-05 5.5499999689e-06
          4.8841366151e-06 2.9489288863e-05 7.2338361861e-06 5.0200001169e-06 3.3100001019e-05 7.1700001172e-06
          3.7000001612e-05 4.0200000512e-05 8.1600001067e-06 5.3792846302e-06 2.951177521e-05 8.758272088e-06
          1.3948731976e-05 3.8784484786e-05 1.6773713014e-06 3.6599998566e-05 7.0100002631e-05 2.2199999421e-06
          3.5305129131e-05 7.2192888183e-05 2.1320488486e-06 3.7777476791e-06 5.7288998505e-05 3.2641664802e-06
          3.5294619011e-05 7.1387788921e-05 3.5213008687e-06 1.5699999494e-05 6.7499997385e-05 4.4899998102e-06
          4.2856950131e-06 5.7312066929e-05 4.8280085139e-06 4.380000064e-06 7.3299997894e-05 5.2400000641e-06
          9.6699995993e-06 5.4100000852e-05 5.8999999055e-06 9.286641216e-06 6.7150060204e-05 5.9332910496e-06
          2.3644815883e-05 6.4022155129e-05 6.676166322e-06 6.6469092417e-06 6.2538929342e-05 6.6231618803e-06
          9.7954389275e-06 6.8598914368e-05 6.5258395807e-06 5.1299998631e-06 7.0499998401e-05 7.000000096e-06
          7.2767043093e-06 6.3410705479e-05 7.8083630797e-06 2.3169543056e-05 6.5338084823e-05 5.9653111748e-06
          4.9300000683e-05 8.4400002379e-05 1.2299999526e-06 3.8564136048e-05 8.4589286416e-05 1.7738361748e-06
          8.8599999799e-06 8.3999999333e-05 2.7000000955e-06 5.7888028095e-06 8.0180019722e-05 3.4181111914e-06
          3.9059283154e-05 8.4611776401e-05 3.2982723042e-06 7.1072563514e-06 8.6621112132e-05 3.180804697e-06
          4.3299998651e-05 7.6700001955e-05 3.8200000745e-06 3.9200000174e-05 9.1599998996e-05 3.7600000269e-06
          7.8320481407e-06 8.6787935288e-05 4.7228168114e-06 4.5900000259e-05 7.8800003394e-05 5.4100000852e-06
          2.5200000891e-05 8.9499997557e-05 5.2700002016e-06 2.9200000426e-05 7.4299998232e-05 6.6399998104e-06
          4.7699999413e-05 7.7199998486e-05 6.9699999585e-06 1.2200000128e-05 7.5299998571e-05 7.3599999268e-06
          4.7705005272e-05 9.5483381301e-05 6.7584487624e-06 5.2933128245e-06 7.876905147e-05 2.84106045e-06
          4.7694742534e-05 9.4697265013e-05 8.1149464677e-06 5.6400000176e-05 2.2800000806e-05 2.2599999738e-06
          6.3699997554e-05 1.4199999896e-05 2.7000000955e-06 5.0800001191e-05 1.3300000319e-05 3.5800001115e-06
          8.0164136307e-05 1.8889288185e-05 4.3638360694e-06 5.8500001614e-05 5.5499999689e-06 5.2099999266e-06
          9.3605121947e-05 8.0124918895e-06 4.992729373e-06 9.3043054221e-05 1.6168318325e-05 5.5707596402e-06
          8.065928705e-05 1.8911776351e-05 5.8882724261e-06 7.0900001447e-05 1.2700000298e-05 6.1400000959e-06
          5.4799998907e-05 1.7500000467e-05 6.2300000536e-06 9.35390417e-05 1.7580701751e-05 6.1483906393e-06
          8.7400003395e-05 3.549999974e-06 6.6600000537e-06 9.3100003141e-05 2.3900000087e-05 7.4300000961e-06
          9.359462274e-05 7.2082016231e-06 6.3805860009e-06 5.3200001275e-05 4.8599998991e-05 2.4500000109e-06
          5.7500001276e-05 3.8499998482e-05 3.2999998894e-06 7.2800001362e-05 4.9700000091e-05 5.4199999795e-06
          8.859999798e-05 2.5900000765e-05 8.0899999375e-06 7.4299998232e-05 7.3700000939e-05 1.3400000398e-06
          5.2257477364e-05 5.3388986998e-05 2.1333357836e-06 9.2800000857e-05 5.4000000091e-05 2.6299999263e-06
          5.2765994042e-05 5.3412080888e-05 3.6989235923e-06 7.4399998994e-05 7.1700000262e-05 3.7800000428e-06
          7.9199999163e-05 7.0299996878e-05 4.3400000322e-06 7.6600001194e-05 5.6500000937e-05 4.8699998842e-06
          8.7699998403e-05 5.0400001783e-05 5.9399999373e-06 7.5800002378e-05 5.7500001276e-05 5.6499998209e-06
          7.9899997218e-05 6.6799999331e-05 7.1700001172e-06 5.0700000429e-05 7.5800002378e-05 1.5699999949e-06
          7.4600000517e-05 8.5500003479e-05 1.8099999579e-06 9.7500000265e-05 8.7799999164e-05 3.0000001061e-06
          8.2357750216e-05 8.9089000539e-05 4.0341665226e-06 7.1800001024e-05 9.4000002719e-05 4.5400001909e-06
          8.2865692093e-05 8.9112065325e-05 5.5980085563e-06 7.143332914e-05 9.0764435299e-05 6.0017368924e-06
          8.6400003056e-05 7.8099998063e-05 6.4199998633e-06 7.5700001616e-05 9.449999925e-05 7.2100001489e-06
          5.4000000091e-05 9.560000035e-05 7.1099998422e-06 9.1599998996e-05 8.3600003563e-05 7.7900003816e-06
          9.2700000096e-05 8.4599996626e-05 8.3699997049e-06 6.41000006e-05 8.9399996796e-05 8.170000001e-06
          7.0948728535e-05 8.9384484454e-05 5.4373713283e-06
        </DataArray>
      </Points>
      <Cells>
        <DataArray type="Int64" Name="connectivity" format="ascii" RangeMin="0" RangeMax="94">
          0 1 2 3 4 5
          6 7 8 9 10 11
          12 13 14 15 16 17
          18 19 20 21 22 23
          24 25 26 27 28 29
          30 31 32 33 34 35
          36 37 38 39 40 41
          42 43 44 45 46 47
          48 49 50 51 52 53
          54 55 56 57 58 59
          60 61 62 63 64 65
          66 67 68 69 70 71
          72 73 74 75 76 77
          78 79 80 81 82 83
          84 85 86 87 88 89
          90 91 92 93 94
        </DataArray>
        <DataArray type="Int64" Name="offsets" format="ascii" RangeMin="1" RangeMax="95">
          1 2 3 4 5 6
          7 8 9 10 11 12
          13 14 15 16 17 18
          19 20 21 22 23 24
          25 26 27 28 29 30
          31 32 33 34 35 36
          37 38 39 40 41 42
          43 44 45 46 47 48
          49 50 51 52 53 54
          55 56 57 58 59 60
          61 62 63 64 65 66
          67 68 69 70 71 72
          73 74 75 76 77 78
          79 80 81 82 83 84
          85 86 87 88 89 90
          91 92 93 94 95
        </DataArray>
        <DataArray type="UInt8" Name="types" format="ascii" RangeMin="1" RangeMax="1">
          1 1 1 1 1 1
          1 1 1 1 1 1
          1 1 1 1 1 1
          1 1 1 1 1 1
          1 1 1 1 1 1
          1 1 1 1 1 1
          1 1 1 1 1 1
          1 1 1 1 1 1
          1 1 1 1 1 1
          1 1 1 1 1 1
          1 1 1 1 1 1
          1 1 1 1 1 1
          1 1 1 1 1 1
          1 1 1 1 1 1
          1 1 1 1 1 1
          1 1 1 1 1
        </DataArray>
      </Cells>
    </Piece>
  </UnstructuredGrid>
</VTKFile>
