<?xml version="1.0"?>
<VTKFile type="UnstructuredGrid" version="0.1" byte_order="LittleEndian" header_type="UInt32" compressor="vtkZLibDataCompressor">
  <UnstructuredGrid>
    <Piece NumberOfPoints="108" NumberOfCells="108">
      <PointData>
        <DataArray type="Int32" Name="id" format="ascii" RangeMin="1" RangeMax="108">
          75 50 19 59 97 42
          49 15 22 44 3 93
          40 1 78 24 7 54
          20 62 61 84 106 77
          32 51 85 60 81 67
          18 92 82 14 26 57
          12 89 105 64 37 90
          34 46 86 79 35 2
          69 48 13 39 72 30
          23 96 95 99 101 43
          56 73 6 38 33 88
          87 91 17 47 41 58
          10 102 66 11 45 36
          103 107 68 55 25 80
          5 74 4 9 76 52
          108 21 29 65 28 8
          94 83 63 53 27 70
          16 71 31 98 100 104
        </DataArray>
        <DataArray type="Int32" Name="type" format="ascii" RangeMin="1" RangeMax="2">
          2 1 1 1 1 1
          1 1 1 1 1 1
          1 1 2 1 1 1
          1 2 2 1 2 2
          1 1 1 1 1 2
          1 1 1 1 1 1
          1 1 2 2 1 1
          1 1 1 2 1 1
          2 1 1 1 2 1
          1 1 1 1 1 1
          1 2 1 1 1 1
          1 1 1 1 1 1
          1 1 2 1 1 1
          1 2 2 1 1 1
          1 2 1 1 2 1
          2 1 1 2 1 1
          1 1 2 1 1 2
          1 2 1 1 1 1
        </DataArray>
        <DataArray type="Float64" Name="diameter" format="ascii" RangeMin="7.8527274285e-07" RangeMax="1.9507632982e-06">
          9.1191414594e-07 1.8492785114e-06 1.8943828561e-06 1.5207325347e-06 1.6758039875e-06 1.6237567588e-06
          1.8605546081e-06 1.9169350295e-06 1.5673763171e-06 1.7139654653e-06 1.6575850235e-06 1.7053973244e-06
          1.5836417328e-06 1.9282111283e-06 9.6733647156e-07 1.7816219898e-06 1.7026893671e-06 1.9169350415e-06
          1.6056896707e-06 1.0450626299e-06 8.7647162014e-07 1.7694243378e-06 7.8630263039e-07 9.9927369691e-07
          1.6488773629e-06 1.6226810812e-06 1.7321132187e-06 1.8718306823e-06 1.7881483833e-06 8.8769946622e-07
          1.725241541e-06 1.6042308314e-06 1.770276579e-06 1.7760572008e-06 1.7041915311e-06 1.6438889855e-06
          1.792898071e-06 1.5773480107e-06 7.9637421245e-07 1.0398524648e-06 1.6056896466e-06 1.733202717e-06
          1.6027931556e-06 1.609461978e-06 1.7694243101e-06 7.9885458247e-07 1.702689356e-06 1.8831067674e-06
          8.9038633457e-07 1.9169350262e-06 1.9394872171e-06 1.7099274182e-06 1.0263769751e-06 1.5965320586e-06
          1.6304967579e-06 1.5186169737e-06 1.6771255111e-06 1.5348586837e-06 1.5465452879e-06 1.7026893693e-06
          1.9507632982e-06 9.5535615228e-07 1.6056896488e-06 1.6314289319e-06 1.9394872159e-06 1.7517396572e-06
          1.769424311e-06 1.7137839871e-06 1.759069816e-06 1.6626918651e-06 1.62667549e-06 1.7928980779e-06
          1.680137198e-06 1.4766662391e-06 8.7570220351e-07 1.4952453971e-06 1.6124806707e-06 1.7816220026e-06
          1.6477178875e-06 7.8561121099e-07 9.593014988e-07 1.6481682034e-06 1.7928980738e-06 1.8162344697e-06
          1.6237567555e-06 9.2974163399e-07 1.7252415502e-06 1.871830691e-06 8.7532455703e-07 1.6914132887e-06
          7.8527274285e-07 1.5561002159e-06 1.6212848931e-06 9.7850576775e-07 1.6226810693e-06 1.7026893554e-06
          1.7053973296e-06 1.788148373e-06 1.0298634305e-06 1.5836417372e-06 1.6721389721e-06 9.5739203916e-07
          1.7252415534e-06 1.0383231093e-06 1.5529109726e-06 1.6313024171e-06 1.4850563822e-06 1.5261871474e-06
        </DataArray>
      </PointData>
      <CellData>
      </CellData>
      <Points>
        <DataArray type="Float32" Name="Points" NumberOfComponents="3" format="ascii" RangeMin="9.888468375e-06" RangeMax="0.00013124058025">
          1.9700000848e-05 2.3399999918e-05 9.4000000672e-07 1.3099999705e-05 1.6300000425e-05 2.140000106e-06
          4.9499999477e-06 8.130000424e-06 2.6800000796e-06 4.0764483856e-05 1.5489304133e-05 2.5849085432e-06
          4.1258899728e-05 1.5511757738e-05 4.1070907173e-06 1.7200000002e-05 5.7000002016e-06 6.1699997786e-06
          3.1799998396e-05 8.6800000645e-06 6.1800001276e-06 1.7700000399e-06 1.0099999599e-05 6.6200000219e-06
          1.4600000213e-05 8.9300001491e-06 7.4399999903e-06 2.5600000299e-05 1.6800000594e-05 7.3599999268e-06
          4.6400000429e-05 1.1600000107e-05 7.9499995991e-06 1.3936366486e-05 3.874927279e-05 1.6629711581e-06
          1.4445694433e-05 4.0199640353e-05 2.2561368951e-06 2.940000013e-05 4.0200000512e-05 4.269999863e-06
          4.5600001613e-05 4.110000009e-05 4.6999998631e-06 3.9300000935e-05 3.8400001358e-05 5.3700000535e-06
          1.7500000467e-05 4.059999992e-05 5.6099997892e-06 3.1399998988e-05 4.9300000683e-05 5.5499999689e-06
          4.8717811296e-06 2.9488726796e-05 7.1957965702e-06 5.0200001169e-06 3.3100001019e-05 7.1700001172e-06
          3.71850183e-05 4.0242586692e-05 8.5536303231e-06 5.3916405705e-06 2.9512337278e-05 8.7963126134e-06
          3.6834015191e-05 4.0161794459e-05 7.8068660514e-06 3.6599998566e-05 7.0100002631e-05 2.2199999421e-06
          3.5305391066e-05 7.2212940722e-05 2.0974409836e-06 3.7715699364e-06 5.7288718381e-05 3.2451466723e-06
          3.5294357076e-05 7.1367729106e-05 3.5559085063e-06 1.5699999494e-05 6.7499997385e-05 4.4899998102e-06
          4.2918727559e-06 5.7312347053e-05 4.8470283218e-06 4.5656424845e-06 7.3342729593e-05 5.6349590523e-06
          9.6699995993e-06 5.4100000852e-05 5.8999999055e-06 2.3157428586e-05 6.5371626988e-05 5.9471931309e-06
          9.2804593805e-06 6.7132452386e-05 5.9260910348e-06 6.6311681621e-06 6.2517137849e-05 6.5935396378e-06
          2.3656930352e-05 6.3988612965e-05 6.6942848207e-06 9.8016216725e-06 6.8616522185e-05 6.5330395955e-06
          5.1299998631e-06 7.0499998401e-05 7.000000096e-06 7.2924453889e-06 6.3432489696e-05 7.8379853221e-06
          4.2134561227e-06 7.3261668149e-05 4.8856736612e-06 4.9300000683e-05 8.4400002379e-05 1.2299999526e-06
          3.8551781472e-05 8.4588726168e-05 1.7357964452e-06 5.2809477893e-06 7.8733843111e-05 2.826660193e-06
          9.0945941338e-06 8.3854851255e-05 1.9515173335e-06 5.80116739e-06 8.0215228081e-05 3.432511221e-06
          3.9071641368e-05 8.461233665e-05 3.3363121474e-06 7.1072563514e-06 8.6621112132e-05 3.180804697e-06
          4.3299998651e-05 7.6700001955e-05 3.8200000745e-06 3.9200000174e-05 9.1599998996e-05 3.7600000269e-06
          7.8320481407e-06 8.6787935288e-05 4.7228168114e-06 4.5900000259e-05 7.8800003394e-05 5.4100000852e-06
          2.5200000891e-05 8.9499997557e-05 5.2700002016e-06 4.7366749641e-05 7.673871005e-05 6.3428637986e-06
          2.9200000426e-05 7.4299998232e-05 6.6399998104e-06 4.7705267207e-05 9.5503441116e-05 6.7238411248e-06
          1.2444579625e-05 7.4622810644e-05 7.7258109741e-06 4.7996843932e-05 7.7610900917e-05 7.5286279753e-06
          4.76944806e-05 9.4677212473e-05 8.1495536506e-06 1.1969767002e-05 7.5937467045e-05 7.0156456786e-06
          8.6336385721e-06 8.4140054241e-05 3.4222155136e-06 5.6400000176e-05 2.2800000806e-05 2.2599999738e-06
          6.3699997554e-05 1.4199999896e-05 2.7000000955e-06 5.0800001191e-05 1.3300000319e-05 3.5800001115e-06
          8.0151781731e-05 1.8888726117e-05 4.3257964535e-06 9.3605383881e-05 8.0325471572e-06 4.9581212807e-06
          5.8500001614e-05 5.5499999689e-06 5.2099999266e-06 9.3030692369e-05 1.6133108147e-05 5.5563596106e-06
          8.0671641626e-05 1.89123366e-05 5.926312042e-06 9.3594360806e-05 7.1881459007e-06 6.4151936385e-06
          7.0900001447e-05 1.2700000298e-05 6.1400000959e-06 5.4474356148e-05 1.7049238522e-05 5.6171784308e-06
          9.3551410828e-05 1.761591011e-05 6.1627906689e-06 8.7400003395e-05 3.549999974e-06 6.6600000537e-06
          9.3100003141e-05 2.3900000087e-05 7.4300000961e-06 5.5089210946e-05 1.7900329112e-05 6.7742575993e-06
          5.3384857893e-05 4.8642548791e-05 2.8432875752e-06 5.7270131947e-05 3.8489561121e-05 2.5922925033e-06
          7.2800001362e-05 4.9700000091e-05 5.4199999795e-06 8.859999798e-05 2.5900000765e-05 8.0899999375e-06
          5.7753310102e-05 3.8511505409e-05 4.0798736336e-06 5.3034160373e-05 4.8561829317e-05 2.0971733647e-06
          7.4299998232e-05 7.3700000939e-05 1.3400000398e-06 5.2245122788e-05 5.3388423112e-05 2.0952961677e-06
          9.2800000857e-05 5.4000000091e-05 2.6299999263e-06 5.2778348618e-05 5.3412641137e-05 3.7369634356e-06
          7.4399998994e-05 7.1700000262e-05 3.7800000428e-06 7.9199999163e-05 7.0299996878e-05 4.3400000322e-06
          7.6600001194e-05 5.6500000937e-05 4.8699998842e-06 8.7699998403e-05 5.0400001783e-05 5.9399999373e-06
          7.5984782598e-05 5.7542532886e-05 6.043128451e-06 7.9899997218e-05 6.6799999331e-05 7.1700001172e-06
          7.563422696e-05 5.7461846154e-05 5.2973164202e-06 5.0700000429e-05 7.5800002378e-05 1.5699999949e-06
          7.4844370829e-05 8.4823397628e-05 2.1754960926e-06 9.7500000265e-05 8.7799999164e-05 3.0000001061e-06
          8.2351572928e-05 8.9088716777e-05 4.0151467147e-06 7.1800001024e-05 9.4000002719e-05 4.5400001909e-06
          7.0936366683e-05 8.9349276095e-05 5.4229712987e-06 8.2871869381e-05 8.9112349087e-05 5.6170283642e-06
          8.6400003056e-05 7.8099998063e-05 6.4199998633e-06 7.1445690992e-05 9.0799643658e-05 6.016136922e-06
          7.5374075095e-05 9.4048853498e-05 6.5966501097e-06 5.4000000091e-05 9.560000035e-05 7.1099998422e-06
          9.1599998996e-05 8.3600003563e-05 7.7900003816e-06 9.2700000096e-05 8.4599996626e-05 8.3699997049e-06
          6.4105013735e-05 8.9783810836e-05 7.5077068686e-06 6.4094740083e-05 8.8996814156e-05 8.8657261585e-06
          7.5989461038e-05 9.4900671684e-05 7.7547265391e-06 7.4369963841e-05 8.6136918981e-05 1.4659423186e-06
        </DataArray>
      </Points>
      <Cells>
        <DataArray type="Int64" Name="connectivity" format="ascii" RangeMin="0" RangeMax="107">
          0 1 2 3 4 5
          6 7 8 9 10 11
          12 13 14 15 16 17
          18 19 20 21 22 23
          24 25 26 27 28 29
          30 31 32 33 34 35
          36 37 38 39 40 41
          42 43 44 45 46 47
          48 49 50 51 52 53
          54 55 56 57 58 59
          60 61 62 63 64 65
          66 67 68 69 70 71
          72 73 74 75 76 77
          78 79 80 81 82 83
          84 85 86 87 88 89
          90 91 92 93 94 95
          96 97 98 99 100 101
          102 103 104 105 106 107
        </DataArray>
        <DataArray type="Int64" Name="offsets" format="ascii" RangeMin="1" RangeMax="108">
          1 2 3 4 5 6
          7 8 9 10 11 12
          13 14 15 16 17 18
          19 20 21 22 23 24
          25 26 27 28 29 30
          31 32 33 34 35 36
          37 38 39 40 41 42
          43 44 45 46 47 48
          49 50 51 52 53 54
          55 56 57 58 59 60
          61 62 63 64 65 66
          67 68 69 70 71 72
          73 74 75 76 77 78
          79 80 81 82 83 84
          85 86 87 88 89 90
          91 92 93 94 95 96
          97 98 99 100 101 102
          103 104 105 106 107 108
        </DataArray>
        <DataArray type="UInt8" Name="types" format="ascii" RangeMin="1" RangeMax="1">
          1 1 1 1 1 1
          1 1 1 1 1 1
          1 1 1 1 1 1
          1 1 1 1 1 1
          1 1 1 1 1 1
          1 1 1 1 1 1
          1 1 1 1 1 1
          1 1 1 1 1 1
          1 1 1 1 1 1
          1 1 1 1 1 1
          1 1 1 1 1 1
          1 1 1 1 1 1
          1 1 1 1 1 1
          1 1 1 1 1 1
          1 1 1 1 1 1
          1 1 1 1 1 1
          1 1 1 1 1 1
          1 1 1 1 1 1
        </DataArray>
      </Cells>
    </Piece>
  </UnstructuredGrid>
</VTKFile>
