<?xml version="1.0"?>
<VTKFile type="UnstructuredGrid" version="0.1" byte_order="LittleEndian" header_type="UInt32" compressor="vtkZLibDataCompressor">
  <UnstructuredGrid>
    <Piece NumberOfPoints="139" NumberOfCells="139">
      <PointData>
        <DataArray type="Int32" Name="id" format="ascii" RangeMin="1" RangeMax="139">
          133 75 134 19 59 50
          123 97 49 42 118 131
          15 22 44 3 93 40
          1 78 117 54 24 124
          7 119 20 109 62 106
          84 61 137 121 77 32
          51 60 85 81 105 129
          67 18 92 82 135 14
          26 57 12 89 111 64
          34 37 90 46 101 86
          79 35 2 126 136 69
          115 48 120 72 39 13
          99 30 113 23 96 95
          110 43 127 56 73 33
          6 38 116 88 47 87
          91 17 41 58 102 10
          107 11 66 103 45 130
          36 138 125 55 25 80
          74 5 4 132 108 9
          76 52 139 68 104 21
          29 65 122 28 8 94
          83 114 63 53 27 31
          128 70 16 112 100 71
          98
        </DataArray>
        <DataArray type="Int32" Name="type" format="ascii" RangeMin="1" RangeMax="2">
          2 2 1 1 1 1
          1 1 1 1 1 1
          1 1 1 1 1 1
          1 2 1 1 1 2
          1 1 1 2 2 2
          1 2 2 2 2 1
          1 1 1 1 2 1
          2 1 1 1 2 1
          1 1 1 1 2 2
          1 1 1 1 1 1
          2 1 1 1 2 2
          1 1 1 2 1 1
          1 1 2 1 1 1
          1 1 2 1 2 1
          1 1 1 1 1 1
          1 1 1 1 1 1
          2 1 2 1 1 1
          1 2 2 1 1 1
          2 1 1 2 2 1
          2 1 2 2 1 1
          1 2 2 1 1 1
          1 2 2 1 1 1
          2 2 1 2 1 2
          1
        </DataArray>
        <DataArray type="Float64" Name="diameter" format="ascii" RangeMin="8.1453194494e-07" RangeMax="1.9613420073e-06">
          8.2947781023e-07 9.2459926234e-07 1.5357495632e-06 1.5827679754e-06 1.6422310573e-06 1.6314431492e-06
          1.6626666089e-06 1.8096919e-06 1.683311439e-06 1.7534863811e-06 1.7015240801e-06 1.4949788509e-06
          1.5800450169e-06 1.6926014401e-06 1.8509022866e-06 1.7900173452e-06 1.8416495772e-06 1.7101663642e-06
          1.6110317043e-06 9.3636288147e-07 1.6923571006e-06 1.7343208659e-06 1.9239642049e-06 9.2680490038e-07
          1.8387252782e-06 1.5402812333e-06 1.7339758248e-06 1.0456612032e-06 9.7437875452e-07 9.5614055912e-07
          1.9107920335e-06 8.2527763447e-07 8.6549112258e-07 1.0008915718e-06 9.3362679827e-07 1.7806139723e-06
          1.7523247438e-06 1.6325042599e-06 1.8704999322e-06 1.9310120075e-06 9.8476427345e-07 1.5752137214e-06
          8.7568621527e-07 1.8630792494e-06 1.7324004288e-06 1.9117123392e-06 8.6677785462e-07 1.9179547908e-06
          1.840347462e-06 1.7752270546e-06 1.9361411787e-06 1.7033697858e-06 1.0448181131e-06 9.7359313766e-07
          1.7308478749e-06 1.7339757737e-06 1.8716764681e-06 1.7380495009e-06 1.6701061097e-06 1.9107919744e-06
          9.7521710325e-07 1.8387252575e-06 1.6544555209e-06 1.5714823923e-06 8.8248052895e-07 8.4145294435e-07
          1.5774883688e-06 1.6845577053e-06 1.5992896371e-06 9.9747759905e-07 1.8465416064e-06 1.7393509282e-06
          1.6574858112e-06 1.7240865677e-06 9.8729578576e-07 1.7607648626e-06 1.6399464729e-06 1.8111190189e-06
          1.620028499e-06 1.8387252828e-06 8.7372622509e-07 1.7209735594e-06 9.7392672448e-07 1.6915104391e-06
          1.7339757743e-06 1.7617715127e-06 1.6321491566e-06 1.8916944226e-06 1.7955321871e-06 1.9107919716e-06
          1.8507063037e-06 1.8996102342e-06 1.756638295e-06 1.9361411929e-06 1.5946441014e-06 1.8143713174e-06
          9.5553065687e-07 1.6147076339e-06 8.1453194494e-07 1.7793618713e-06 1.7413093935e-06 1.6614882384e-06
          1.9239642306e-06 8.7412050975e-07 9.5655971294e-07 1.7798481343e-06 1.9361411847e-06 1.9613420073e-06
          9.0075256955e-07 1.7534863748e-06 1.8630792682e-06 8.9157386621e-07 9.5454950954e-07 1.5428675014e-06
          8.2417359094e-07 1.8265483105e-06 8.6430549795e-07 8.9149961738e-07 1.6481214539e-06 1.6804244256e-06
          1.7508170126e-06 9.4420392819e-07 9.3456590914e-07 1.7523247335e-06 1.8387252593e-06 1.8416495859e-06
          1.9310119998e-06 1.0252568848e-06 9.561303302e-07 1.7101663715e-06 1.8057340635e-06 1.6769803866e-06
          9.4731079979e-07 9.0303246427e-07 1.8630792744e-06 9.420451927e-07 1.6037045644e-06 1.0500826656e-06
          1.7616349018e-06
        </DataArray>
      </PointData>
      <CellData>
      </CellData>
      <Points>
        <DataArray type="Float32" Name="Points" NumberOfComponents="3" format="ascii" RangeMin="9.7729634463e-06" RangeMax="0.00013138974913">
          1.9525481548e-05 2.3359831175e-05 5.6870777598e-07 1.989356133e-05 2.3444552426e-05 1.3518048263e-06
          1.2869632883e-05 1.6937836335e-05 1.7954457689e-06 4.9551404118e-06 8.5237734311e-06 2.0005168153e-06
          4.0745951992e-05 1.5488461941e-05 2.527848892e-06 1.3344721083e-05 1.5622419596e-05 2.5060235203e-06
          4.9446066441e-06 7.7168542703e-06 3.3929102301e-06 4.127743523e-05 1.551259993e-05 4.1641505959e-06
          3.1467166991e-05 8.2192846094e-06 5.553644769e-06 1.7200000002e-05 5.7000002016e-06 6.1699997786e-06
          1.5069374513e-06 9.3508997452e-06 6.3136358222e-06 3.2096475479e-05 9.0903886303e-06 6.7379341999e-06
          2.0151642275e-06 1.0798133189e-05 6.9055195127e-06 1.4600000213e-05 8.9300001491e-06 7.4399999903e-06
          2.5600000299e-05 1.6800000594e-05 7.3599999268e-06 4.6400000429e-05 1.1600000107e-05 7.9499995991e-06
          1.391782007e-05 3.8696460251e-05 1.641371e-06 1.4464240849e-05 4.0252456529e-05 2.2777369395e-06
          2.9405264286e-05 4.0603219531e-05 3.5742161799e-06 4.5729517296e-05 4.1193154175e-05 4.2682754611e-06
          2.9394483136e-05 3.977743836e-05 4.9991599553e-06 3.1058960303e-05 4.8827925639e-05 4.9082041187e-06
          3.9300000935e-05 3.8400001358e-05 5.3700000535e-06 4.54716901e-05 4.1007715481e-05 5.1277006605e-06
          1.7500000467e-05 4.059999992e-05 5.6099997892e-06 3.1704643334e-05 4.9721693358e-05 6.1233045017e-06
          4.8532474466e-06 2.9487884603e-05 7.1387366916e-06 4.6470081543e-06 3.2751137041e-05 7.1534827839e-06
          5.3715457398e-06 3.3428801544e-05 7.1855674832e-06 3.6800149246e-05 4.0154001908e-05 7.7348095147e-06
          5.4101737987e-06 2.9513177651e-05 8.8533715825e-06 3.7614667235e-05 4.0159378841e-05 8.6663667389e-06
          3.6803819967e-05 4.0345814341e-05 8.5830251919e-06 3.6240464397e-05 6.9763722422e-05 2.2040785552e-06
          3.6938010453e-05 7.0416142989e-05 2.2349681785e-06 3.5305783967e-05 7.2243026807e-05 2.0455295271e-06
          3.7468587379e-06 5.7287594245e-05 3.1690669857e-06 1.5940277081e-05 6.7351335019e-05 3.7233862713e-06
          3.5293964174e-05 7.1337650297e-05 3.6078201902e-06 4.3165841817e-06 5.7313471189e-05 4.9231075536e-06
          4.1225780478e-06 7.3234608863e-05 4.760903721e-06 1.5467949197e-05 6.7643573857e-05 5.2303689699e-06
          4.7894041018e-06 7.3461786087e-05 5.356737347e-06 9.6699995993e-06 5.4100000852e-05 5.8999999055e-06
          2.3139258701e-05 6.5421940235e-05 5.9200151554e-06 9.2557293101e-06 6.7062028393e-05 5.8972909756e-06
          4.4696721488e-06 7.3257790064e-05 6.1325004026e-06 6.6075572249e-06 6.2484454247e-05 6.5491062742e-06
          2.3675102057e-05 6.3938306994e-05 6.7214623414e-06 9.8263508335e-06 6.8686938903e-05 6.5618396548e-06
          5.1299998631e-06 7.0499998401e-05 7.000000096e-06 7.3160563261e-06 6.3465173298e-05 7.8824186858e-06
          4.8925830924e-05 8.4050036094e-05 1.2134305507e-06 4.965264452e-05 8.4729828814e-05 1.245616204e-06
          9.1122392405e-06 8.3843930042e-05 1.8952194978e-06 3.853324597e-05 8.4587882156e-05 1.6787366803e-06
          5.2624009186e-06 7.8681026935e-05 2.8050601486e-06 5.8197147155e-06 8.0268044258e-05 3.4541112655e-06
          8.6159934654e-06 8.4150975454e-05 3.4785134631e-06 3.9090173232e-05 8.4613180661e-05 3.3933717987e-06
          7.1072563514e-06 8.6621112132e-05 3.180804697e-06 4.3299998651e-05 7.6700001955e-05 3.8200000745e-06
          3.9959111746e-05 9.1301699285e-05 3.8763196244e-06 3.8478032366e-05 9.1883703135e-05 3.649372502e-06
          7.4155268521e-06 8.6883708718e-05 4.6800055316e-06 8.229217201e-06 8.6696614744e-05 4.7636390264e-06
          2.5000052119e-05 8.9345339802e-05 4.5271335694e-06 4.5613069233e-05 7.8012577433e-05 5.3197036323e-06
          4.6173096052e-05 7.9549456132e-05 5.4959423323e-06 2.9340330002e-05 7.4400930316e-05 6.1722244027e-06
          4.7343139158e-05 7.6706026448e-05 6.298430435e-06 2.5419418307e-05 8.966972382e-05 6.0852048591e-06
          1.1951596207e-05 7.5987780292e-05 6.9884681579e-06 4.7705660108e-05 9.5533519925e-05 6.6719298957e-06
          2.9060871384e-05 7.4199931987e-05 7.1037666203e-06 1.2462750419e-05 7.4572504673e-05 7.7529884948e-06
          4.8020458053e-05 7.7643584518e-05 7.5730613389e-06 4.7694087698e-05 9.4647126389e-05 8.2014657892e-06
          6.3452433096e-05 1.4885459677e-05 2.3297200187e-06 5.6400000176e-05 2.2800000806e-05 2.2599999738e-06
          5.0615515647e-05 1.325753783e-05 3.1875090372e-06 6.3961859269e-05 1.3474963453e-05 3.0916589822e-06
          5.1003695262e-05 1.3346884771e-05 4.0133686525e-06 5.874659837e-05 5.3974217735e-06 4.4232137952e-06
          8.0133249867e-05 1.8887885744e-05 4.2687365749e-06 9.3605776783e-05 8.0626314229e-06 4.9062100516e-06
          5.8261641243e-05 5.6974790823e-06 5.9704921114e-06 9.3012145953e-05 1.608029379e-05 5.5347595662e-06
          5.4450745665e-05 1.701655674e-05 5.5727450672e-06 8.069017349e-05 1.8913178792e-05 5.9833719206e-06
          9.3593967904e-05 7.1580620897e-06 6.4671053224e-06 7.0900001447e-05 1.2700000298e-05 6.1400000959e-06
          9.3569957244e-05 1.7668726287e-05 6.1843907133e-06 8.7400003395e-05 3.549999974e-06 6.6600000537e-06
          5.5112821428e-05 1.7933010895e-05 6.8186914177e-06 9.3100003141e-05 2.3900000087e-05 7.4300000961e-06
          5.3000290791e-05 4.8554033128e-05 2.025116828e-06 5.7251596445e-05 3.8488717109e-05 2.5352328521e-06
          5.3712759836e-05 4.8925354349e-05 2.9283646654e-06 5.7771841966e-05 3.8512345782e-05 4.1369330575e-06
          7.2800001362e-05 4.9700000091e-05 5.4199999795e-06 8.7443069788e-05 4.9668356951e-05 5.6407748161e-06
          8.859999798e-05 2.5900000765e-05 8.0899999375e-06 5.3103183745e-05 4.8355213949e-05 2.9013708627e-06
          7.3957613495e-05 7.3379764217e-05 1.324838081e-06 5.2226587286e-05 5.3387582739e-05 2.0382365165e-06
          9.2800000857e-05 5.4000000091e-05 2.6299999263e-06 5.2796880482e-05 5.341348151e-05 3.7940230868e-06
          7.9323843238e-05 7.0389076427e-05 3.9271776586e-06 7.4399998994e-05 7.1700000262e-05 3.7800000428e-06
          7.6600001194e-05 5.6500000937e-05 4.8699998842e-06 7.9077362898e-05 7.0211790444e-05 4.7487997108e-06
          7.5600357377e-05 5.7454049966e-05 5.2252598834e-06 8.7939028163e-05 5.1080667617e-05 6.2183762566e-06
          7.6413889474e-05 5.7459448726e-05 6.1558089328e-06 7.9899997218e-05 6.6799999331e-05 7.1700001172e-06
          7.5604155427e-05 5.7645633206e-05 6.0725810727e-06 7.462103531e-05 7.4000265158e-05 1.3542164652e-06
          7.4351795774e-05 8.6187224952e-05 1.4387646843e-06 5.0700000429e-05 7.5800002378e-05 1.5699999949e-06
          7.4862538895e-05 8.4773084382e-05 2.2026738407e-06 9.7629323136e-05 8.7893015007e-05 2.5689207632e-06
          9.7371885204e-05 8.7707849161e-05 3.4270619835e-06 8.23268565e-05 8.908759628e-05 3.9390670281e-06
          7.1800001024e-05 9.4000002719e-05 4.5400001909e-06 7.0917820267e-05 8.9296459919e-05 5.4013712543e-06
          8.2896585809e-05 8.9113469585e-05 5.693107596e-06 8.6026266217e-05 7.7750446508e-05 6.4034497882e-06
          8.675223944e-05 7.8429446148e-05 6.4355981522e-06 7.1464244684e-05 9.0852459834e-05 6.0377369664e-06
          7.5350464613e-05 9.4016169896e-05 6.5522167461e-06 6.4105537604e-05 8.982392319e-05 7.4384911386e-06
          5.3544510592e-05 9.5704730484e-05 7.0631831477e-06 5.4436128266e-05 9.5499723102e-05 7.1548270171e-06
          9.1593225079e-05 8.3592691226e-05 7.7891454566e-06 9.2540227342e-05 8.4615916421e-05 7.9058872871e-06
          7.6013071521e-05 9.4933355285e-05 7.7991608123e-06 9.291034803e-05 8.4647457697e-05 8.8197848527e-06
          6.4094216214e-05 8.8956701802e-05 8.9349414338e-06
        </DataArray>
      </Points>
      <Cells>
        <DataArray type="Int64" Name="connectivity" format="ascii" RangeMin="0" RangeMax="138">
          0 1 2 3 4 5
          6 7 8 9 10 11
          12 13 14 15 16 17
          18 19 20 21 22 23
          24 25 26 27 28 29
          30 31 32 33 34 35
          36 37 38 39 40 41
          42 43 44 45 46 47
          48 49 50 51 52 53
          54 55 56 57 58 59
          60 61 62 63 64 65
          66 67 68 69 70 71
          72 73 74 75 76 77
          78 79 80 81 82 83
          84 85 86 87 88 89
          90 91 92 93 94 95
          96 97 98 99 100 101
          102 103 104 105 106 107
          108 109 110 111 112 113
          114 115 116 117 118 119
          120 121 122 123 124 125
          126 127 128 129 130 131
          132 133 134 135 136 137
          138
        </DataArray>
        <DataArray type="Int64" Name="offsets" format="ascii" RangeMin="1" RangeMax="139">
          1 2 3 4 5 6
          7 8 9 10 11 12
          13 14 15 16 17 18
          19 20 21 22 23 24
          25 26 27 28 29 30
          31 32 33 34 35 36
          37 38 39 40 41 42
          43 44 45 46 47 48
          49 50 51 52 53 54
          55 56 57 58 59 60
          61 62 63 64 65 66
          67 68 69 70 71 72
          73 74 75 76 77 78
          79 80 81 82 83 84
          85 86 87 88 89 90
          91 92 93 94 95 96
          97 98 99 100 101 102
          103 104 105 106 107 108
          109 110 111 112 113 114
          115 116 117 118 119 120
          121 122 123 124 125 126
          127 128 129 130 131 132
          133 134 135 136 137 138
          139
        </DataArray>
        <DataArray type="UInt8" Name="types" format="ascii" RangeMin="1" RangeMax="1">
          1 1 1 1 1 1
          1 1 1 1 1 1
          1 1 1 1 1 1
          1 1 1 1 1 1
          1 1 1 1 1 1
          1 1 1 1 1 1
          1 1 1 1 1 1
          1 1 1 1 1 1
          1 1 1 1 1 1
          1 1 1 1 1 1
          1 1 1 1 1 1
          1 1 1 1 1 1
          1 1 1 1 1 1
          1 1 1 1 1 1
          1 1 1 1 1 1
          1 1 1 1 1 1
          1 1 1 1 1 1
          1 1 1 1 1 1
          1 1 1 1 1 1
          1 1 1 1 1 1
          1 1 1 1 1 1
          1 1 1 1 1 1
          1 1 1 1 1 1
          1
        </DataArray>
      </Cells>
    </Piece>
  </UnstructuredGrid>
</VTKFile>
