<?xml version="1.0"?>
<VTKFile type="UnstructuredGrid" version="0.1" byte_order="LittleEndian" header_type="UInt32" compressor="vtkZLibDataCompressor">
  <UnstructuredGrid>
    <Piece NumberOfPoints="133" NumberOfCells="133">
      <PointData>
        <DataArray type="Int32" Name="id" format="ascii" RangeMin="1" RangeMax="133">
          75 50 19 59 97 42
          49 15 22 44 3 118
          123 131 133 93 40 1
          117 78 24 7 54 20
          109 62 106 84 61 119
          124 77 32 51 85 60
          81 105 18 92 82 67
          14 26 57 12 89 121
          129 111 64 34 37 90
          46 101 86 79 35 2
          69 115 48 72 39 13
          30 113 99 23 96 95
          120 126 110 43 56 73
          33 6 38 116 88 47
          87 91 17 41 58 102
          10 127 107 11 66 103
          45 36 130 68 55 25
          80 5 74 4 108 9
          76 52 125 132 104 21
          29 65 28 8 94 83
          114 63 53 27 31 70
          16 100 112 71 98 122
          128
        </DataArray>
        <DataArray type="Int32" Name="type" format="ascii" RangeMin="1" RangeMax="2">
          2 1 1 1 1 1
          1 1 1 1 1 1
          1 1 2 1 1 1
          1 2 1 1 1 1
          2 2 2 1 2 1
          2 2 1 1 1 1
          1 2 1 1 1 2
          1 1 1 1 1 2
          1 2 2 1 1 1
          1 1 1 2 1 1
          2 1 1 2 1 1
          1 2 1 1 1 1
          1 1 1 1 1 2
          1 1 1 1 1 1
          1 1 1 1 1 1
          1 2 2 1 2 1
          1 1 1 2 1 1
          1 1 2 1 2 1
          2 1 2 2 1 1
          1 2 1 1 1 1
          2 2 1 1 1 2
          1 1 2 2 1 2
          2
        </DataArray>
        <DataArray type="Float64" Name="diameter" format="ascii" RangeMin="7.9193513291e-07" RangeMax="1.9684515432e-06">
          8.8275132943e-07 1.9684515432e-06 1.5601208388e-06 1.6187330888e-06 1.7837978079e-06 1.7283965073e-06
          1.6592256679e-06 1.5574368403e-06 1.6683827422e-06 1.8244185314e-06 1.764404766e-06 1.6771777141e-06
          1.6388762378e-06 1.4735878477e-06 7.9193513291e-07 1.8152982189e-06 1.68569634e-06 1.5879801529e-06
          1.6681418996e-06 8.942583662e-07 1.8964350398e-06 1.8124157604e-06 1.7095052241e-06 1.7091651197e-06
          9.977246328e-07 9.2971000749e-07 9.1274138858e-07 1.8834513415e-06 1.0173649239e-06 1.5182420188e-06
          8.8513016951e-07 8.9046815462e-07 1.7551359451e-06 1.7272514952e-06 1.8437357665e-06 1.609145469e-06
          1.9033820016e-06 9.3719333573e-07 1.8364212618e-06 1.7076122659e-06 1.884358484e-06 1.0446672065e-06
          1.8905116174e-06 1.8140147321e-06 1.7498261055e-06 1.9084377801e-06 1.6789970152e-06 9.5489409137e-07
          1.552674675e-06 9.961454918e-07 9.2823851611e-07 1.70608193e-06 1.7091650744e-06 1.8448954694e-06
          1.7131805111e-06 1.64620929e-06 1.8834512892e-06 9.3027188259e-07 1.8124157417e-06 1.630782641e-06
          1.0366290938e-06 1.5549167742e-06 1.6604541049e-06 9.5195179498e-07 1.8201202491e-06 1.714463313e-06
          1.6994173636e-06 9.4223468911e-07 1.6337695691e-06 1.7355708458e-06 1.6164811936e-06 1.7852045042e-06
          1.5764060999e-06 1.5489967385e-06 1.5968482175e-06 1.8124157645e-06 1.6963488996e-06 9.2881464677e-07
          1.6673073558e-06 1.7091650753e-06 1.7365630922e-06 1.6087954479e-06 1.8646269936e-06 1.7698407003e-06
          1.8834512872e-06 1.8242253539e-06 1.8724295389e-06 1.7315033236e-06 1.9084377927e-06 1.571827033e-06
          1.7884102682e-06 8.3325952192e-07 9.120725731e-07 1.5916034856e-06 1.0166656876e-06 1.7539017577e-06
          1.7163937548e-06 1.8964350628e-06 1.6377147259e-06 8.5111053197e-07 1.7543810693e-06 1.9084377852e-06
          1.9332780261e-06 1.7283965017e-06 8.6010167604e-07 1.8364212785e-06 9.1125438045e-07 1.5207912805e-06
          1.0159307674e-06 1.8004130256e-06 9.1332664419e-07 8.513274462e-07 1.6245392045e-06 1.6563799657e-06
          1.7257653364e-06 9.0236801648e-07 1.7272514845e-06 1.812415743e-06 1.8152982268e-06 1.9033819933e-06
          9.7925734575e-07 9.1307873788e-07 1.6856963466e-06 1.7798966025e-06 1.6529852044e-06 8.6188551399e-07
          1.8364212841e-06 1.5807578543e-06 8.9990746312e-07 1.0031117556e-06 1.7364284336e-06 8.9315704005e-07
          9.0403128165e-07
        </DataArray>
      </PointData>
      <CellData>
      </CellData>
      <Points>
        <DataArray type="Float32" Name="Points" NumberOfComponents="3" format="ascii" RangeMin="9.7729634463e-06" RangeMax="0.00013138322654">
          1.9885093934e-05 2.3442602469e-05 1.3337906921e-06 1.3099999705e-05 1.6300000425e-05 2.140000106e-06
          4.9551404118e-06 8.5237734311e-06 2.0005168153e-06 4.075212928e-05 1.5488742065e-05 2.5468686999e-06
          4.1271257942e-05 1.5512319806e-05 4.1451303332e-06 1.7200000002e-05 5.7000002016e-06 6.1699997786e-06
          3.1475035939e-05 8.2301785369e-06 5.5684558902e-06 2.0089817099e-06 1.07805281e-05 6.8983194979e-06
          1.4600000213e-05 8.9300001491e-06 7.4399999903e-06 2.5600000299e-05 1.6800000594e-05 7.3599999268e-06
          4.6400000429e-05 1.1600000107e-05 7.9499995991e-06 1.5131198552e-06 9.3685048341e-06 6.320835837e-06
          4.9446066441e-06 7.7168542703e-06 3.3929102301e-06 3.2088606531e-05 9.0794937933e-06 6.7231230787e-06
          1.9533948944e-05 2.3361779313e-05 5.8672191017e-07 1.3924001905e-05 3.8714064431e-05 1.6485711285e-06
          1.4458059013e-05 4.0234852349e-05 2.2705369247e-06 2.9405133319e-05 4.0593193262e-05 3.5915199987e-06
          2.9394614103e-05 3.978746463e-05 4.9818563639e-06 4.5723889343e-05 4.1189105104e-05 4.2870356083e-06
          3.9300000935e-05 3.8400001358e-05 5.3700000535e-06 1.7500000467e-05 4.059999992e-05 5.6099997892e-06
          3.1066832889e-05 4.8838821385e-05 4.9230152399e-06 4.8532474466e-06 2.9487884603e-05 7.1387366916e-06
          4.6616073632e-06 3.2764794014e-05 7.1541294346e-06 5.3569465308e-06 3.3415148209e-05 7.1849208325e-06
          3.6808614823e-05 4.0155948227e-05 7.7528229667e-06 5.4101737987e-06 2.9513177651e-05 8.8533715825e-06
          3.7210418668e-05 4.0248432924e-05 8.6076724983e-06 3.1696774386e-05 4.971080125e-05 6.1084933805e-06
          4.5477318054e-05 4.1011760914e-05 5.1089405133e-06 3.6923414882e-05 7.0402493293e-05 2.2343217552e-06
          3.5305783967e-05 7.2243026807e-05 2.0455295271e-06 3.7530364807e-06 5.728787437e-05 3.188087021e-06
          3.5293964174e-05 7.1337650297e-05 3.6078201902e-06 1.5934394469e-05 6.7354972998e-05 3.7421523302e-06
          4.3104064389e-06 5.7313187426e-05 4.9040877457e-06 4.1795874495e-06 7.3253868322e-05 4.8136171245e-06
          9.6699995993e-06 5.4100000852e-05 5.8999999055e-06 2.3139258701e-05 6.5421940235e-05 5.9200151554e-06
          9.2619120551e-06 6.707963621e-05 5.9044909904e-06 4.5995111577e-06 7.3350522143e-05 5.707015589e-06
          6.6154275373e-06 6.2495353632e-05 6.5639173954e-06 2.3675102057e-05 6.3938306994e-05 6.7214623414e-06
          9.8201680885e-06 6.8669338361e-05 6.5546396399e-06 5.1299998631e-06 7.0499998401e-05 7.000000096e-06
          7.3081860137e-06 6.3454281189e-05 7.8676075645e-06 3.6255063605e-05 6.9777379395e-05 2.204725206e-06
          1.5473831809e-05 6.7639935878e-05 5.211602911e-06 4.8940430133e-05 8.4063693066e-05 1.2140770878e-06
          4.9638045311e-05 8.4716171841e-05 1.2449696669e-06 9.1122392405e-06 8.3843930042e-05 1.8952194978e-06
          3.853324597e-05 8.4587882156e-05 1.6787366803e-06 5.2685832088e-06 7.8698634752e-05 2.8122601634e-06
          5.8135324252e-06 8.025043644e-05 3.4469112506e-06 8.6159934654e-06 8.4150975454e-05 3.4785134631e-06
          3.9090173232e-05 8.4613180661e-05 3.3933717987e-06 7.1072563514e-06 8.6621112132e-05 3.180804697e-06
          4.3299998651e-05 7.6700001955e-05 3.8200000745e-06 3.9940685383e-05 9.1308938863e-05 3.8734956433e-06
          7.8320481407e-06 8.6787935288e-05 4.7228168114e-06 2.5000052119e-05 8.9345339802e-05 4.5271335694e-06
          4.5619879529e-05 7.8031262092e-05 5.3218464018e-06 2.9334702049e-05 7.4396884884e-05 6.1909845499e-06
          4.7343139158e-05 7.6706026448e-05 6.298430435e-06 2.5419418307e-05 8.966972382e-05 6.0852048591e-06
          4.7705529141e-05 9.5523493655e-05 6.6892334871e-06 2.9066499337e-05 7.420397742e-05 7.0850069278e-06
          1.1951596207e-05 7.5987780292e-05 6.9884681579e-06 1.2462750419e-05 7.4572504673e-05 7.7529884948e-06
          4.8020458053e-05 7.7643584518e-05 7.5730613389e-06 4.7694218665e-05 9.4657152658e-05 8.184161743e-06
          4.6166285756e-05 7.9530771472e-05 5.4938000176e-06 3.8496462366e-05 9.1876463557e-05 3.6521962556e-06
          6.3458486693e-05 1.4868689505e-05 2.338779268e-06 5.6400000176e-05 2.2800000806e-05 2.2599999738e-06
          6.3955805672e-05 1.3491733625e-05 3.0825997328e-06 5.0995229685e-05 1.3344935724e-05 3.9953547457e-06
          5.874659837e-05 5.3974217735e-06 4.4232137952e-06 8.0133249867e-05 1.8887885744e-05 4.2687365749e-06
          9.3605645816e-05 8.0526033344e-06 4.923513643e-06 5.8261641243e-05 5.6974790823e-06 5.9704921114e-06
          9.3012145953e-05 1.608029379e-05 5.5347595662e-06 5.4450745665e-05 1.701655674e-05 5.5727450672e-06
          8.069017349e-05 1.8913178792e-05 5.9833719206e-06 9.3594098871e-05 7.1680897236e-06 6.4498017309e-06
          7.0900001447e-05 1.2700000298e-05 6.1400000959e-06 9.3569957244e-05 1.7668726287e-05 6.1843907133e-06
          8.7400003395e-05 3.549999974e-06 6.6600000537e-06 5.5112821428e-05 1.7933010895e-05 6.8186914177e-06
          9.3100003141e-05 2.3900000087e-05 7.4300000961e-06 5.0623984862e-05 1.3259486877e-05 3.2055231713e-06
          5.3008760005e-05 4.8555983085e-05 2.0431309622e-06 5.7251596445e-05 3.8488717109e-05 2.5352328521e-06
          5.3410258261e-05 4.8648395023e-05 2.8973299777e-06 5.7771841966e-05 3.8512345782e-05 4.1369330575e-06
          7.2800001362e-05 4.9700000091e-05 5.4199999795e-06 8.859999798e-05 2.5900000765e-05 8.0899999375e-06
          8.7449247076e-05 4.968596113e-05 5.6479748309e-06 7.4606439739e-05 7.3986615462e-05 1.3535699281e-06
          5.2226587286e-05 5.3387582739e-05 2.0382365165e-06 9.2800000857e-05 5.4000000091e-05 2.6299999263e-06
          5.2796880482e-05 5.341348151e-05 3.7940230868e-06 7.4399998994e-05 7.1700000262e-05 3.7800000428e-06
          7.9318218923e-05 7.0385030995e-05 3.9459378058e-06 7.6600001194e-05 5.6500000937e-05 4.8699998842e-06
          7.5608826592e-05 5.7455996284e-05 5.2432737903e-06 8.7932850874e-05 5.10630598e-05 6.2111762418e-06
          7.6010182966e-05 5.7548379118e-05 6.0971706262e-06 7.9899997218e-05 6.6799999331e-05 7.1700001172e-06
          7.3972209066e-05 7.3393421189e-05 1.3254846181e-06 7.9082987213e-05 7.0215843152e-05 4.7300395636e-06
          7.4351795774e-05 8.6187224952e-05 1.4387646843e-06 5.0700000429e-05 7.5800002378e-05 1.5699999949e-06
          7.4862538895e-05 8.4773084382e-05 2.2026738407e-06 9.7623691545e-05 8.7888969574e-05 2.5876809104e-06
          8.2333033788e-05 8.9087872766e-05 3.9580868361e-06 7.1800001024e-05 9.4000002719e-05 4.5400001909e-06
          7.0924004831e-05 8.9314067736e-05 5.4085712691e-06 8.2890408521e-05 8.9113185822e-05 5.6740877881e-06
          8.6055464635e-05 7.7777753177e-05 6.4047430897e-06 8.6723041022e-05 7.8402139479e-05 6.4343053054e-06
          7.145806012e-05 9.0834852017e-05 6.0305369516e-06 7.5350464613e-05 9.4016169896e-05 6.5522167461e-06
          6.4105406636e-05 8.9813896921e-05 7.4557951848e-06 5.4416734201e-05 9.5504183264e-05 7.1528334047e-06
          9.1593195975e-05 8.359275671e-05 7.7888962551e-06 7.6013071521e-05 9.4933355285e-05 7.7991608123e-06
          9.2529400717e-05 8.4588893515e-05 7.9406609075e-06 9.2902730103e-05 8.4646664618e-05 8.8013111963e-06
          6.4094347181e-05 8.8966728072e-05 8.9176373876e-06 9.7377509519e-05 8.771190187e-05 3.4083018363e-06
          5.3563904657e-05 9.5700270322e-05 7.0651767601e-06
        </DataArray>
      </Points>
      <Cells>
        <DataArray type="Int64" Name="connectivity" format="ascii" RangeMin="0" RangeMax="132">
          0 1 2 3 4 5
          6 7 8 9 10 11
          12 13 14 15 16 17
          18 19 20 21 22 23
          24 25 26 27 28 29
          30 31 32 33 34 35
          36 37 38 39 40 41
          42 43 44 45 46 47
          48 49 50 51 52 53
          54 55 56 57 58 59
          60 61 62 63 64 65
          66 67 68 69 70 71
          72 73 74 75 76 77
          78 79 80 81 82 83
          84 85 86 87 88 89
          90 91 92 93 94 95
          96 97 98 99 100 101
          102 103 104 105 106 107
          108 109 110 111 112 113
          114 115 116 117 118 119
          120 121 122 123 124 125
          126 127 128 129 130 131
          132
        </DataArray>
        <DataArray type="Int64" Name="offsets" format="ascii" RangeMin="1" RangeMax="133">
          1 2 3 4 5 6
          7 8 9 10 11 12
          13 14 15 16 17 18
          19 20 21 22 23 24
          25 26 27 28 29 30
          31 32 33 34 35 36
          37 38 39 40 41 42
          43 44 45 46 47 48
          49 50 51 52 53 54
          55 56 57 58 59 60
          61 62 63 64 65 66
          67 68 69 70 71 72
          73 74 75 76 77 78
          79 80 81 82 83 84
          85 86 87 88 89 90
          91 92 93 94 95 96
          97 98 99 100 101 102
          103 104 105 106 107 108
          109 110 111 112 113 114
          115 116 117 118 119 120
          121 122 123 124 125 126
          127 128 129 130 131 132
          133
        </DataArray>
        <DataArray type="UInt8" Name="types" format="ascii" RangeMin="1" RangeMax="1">
          1 1 1 1 1 1
          1 1 1 1 1 1
          1 1 1 1 1 1
          1 1 1 1 1 1
          1 1 1 1 1 1
          1 1 1 1 1 1
          1 1 1 1 1 1
          1 1 1 1 1 1
          1 1 1 1 1 1
          1 1 1 1 1 1
          1 1 1 1 1 1
          1 1 1 1 1 1
          1 1 1 1 1 1
          1 1 1 1 1 1
          1 1 1 1 1 1
          1 1 1 1 1 1
          1 1 1 1 1 1
          1 1 1 1 1 1
          1 1 1 1 1 1
          1 1 1 1 1 1
          1 1 1 1 1 1
          1 1 1 1 1 1
          1
        </DataArray>
      </Cells>
    </Piece>
  </UnstructuredGrid>
</VTKFile>
