<?xml version="1.0"?>
<VTKFile type="UnstructuredGrid" version="0.1" byte_order="LittleEndian" header_type="UInt32" compressor="vtkZLibDataCompressor">
  <UnstructuredGrid>
    <Piece NumberOfPoints="933" NumberOfCells="933">
      <PointData>
        <DataArray type="Int32" Name="id" format="ascii" RangeMin="1" RangeMax="933">
          668 298 477 529 794 623
          206 624 793 888 19 59
          134 531 244 385 308 625
          626 406 669 50 666 174
          343 592 589 123 484 241
          845 318 49 457 97 495
          42 324 22 131 15 44
          118 474 3 264 196 605
          846 745 748 766 791 792
          844 550 886 887 75 203
          460 40 276 93 430 245
          386 1 593 627 369 266
          594 407 408 256 78 671
          629 150 117 461 370 670
          628 175 672 54 362 497
          475 532 674 595 286 109
          533 675 711 24 7 257
          387 215 673 124 363 534
          225 106 389 633 119 433
          434 371 388 207 62 561
          373 676 176 432 634 677
          141 597 499 246 372 329
          596 562 535 435 20 84
          267 713 501 154 712 498
          310 598 258 630 436 309
          220 500 502 208 374 277
          632 161 631 198 344 536
          61 478 504 166 678 299
          503 188 137 462 680 679
          390 311 749 750 751 752
          795 796 797 798 799 800
          801 802 803 804 805 806
          807 808 133 530 842 847
          848 849 850 889 890 891
          892 893 894 895 896 897
          898 899 900 901 459 313
          121 507 636 312 209 635
          32 505 537 506 411 391
          268 682 77 51 599 479
          177 681 226 563 330 600
          601 275 148 314 410 85
          409 508 538 325 60 235
          714 463 105 690 315 186
          540 81 221 539 67 300
          437 227 151 92 167 129
          565 438 345 541 375 18
          57 542 637 458 907 192
          14 160 216 364 145 135
          464 412 715 602 543 857
          569 82 716 480 346 718
          393 26 283 683 717 269
          228 906 113 89 12 288
          348 746 753 754 755 756
          856 759 764 905 814 809
          810 811 812 813 851 852
          853 854 855 883 902 903
          904 511 544 566 316 510
          37 317 719 914 210 481
          111 638 229 247 34 270
          366 641 222 413 513 90
          350 512 439 365 567 545
          546 367 640 168 142 603
          331 79 392 187 199 101
          642 349 236 351 643 604
          514 2 259 217 649 684
          332 157 568 126 564 686
          35 46 560 69 440 394
          644 278 483 515 115 622
          287 496 86 482 720 685
          289 271 182 414 758 416
          72 149 415 441 200 721
          645 333 136 691 547 687
          517 352 39 48 120 646
          13 384 353 516 181 647
          590 23 158 688 211 465
          204 189 549 689 96 341
          30 648 548 570 99 95
          354 230 710 347 304 242
          155 762 763 761 765 815
          816 817 818 819 820 821
          822 823 824 442 858 859
          860 861 862 863 864 865
          866 301 757 908 909 910
          911 912 913 509 571 237
          58 127 279 43 692 418
          466 110 723 56 417 572
          218 355 190 73 405 476
          38 573 722 280 395 6
          223 574 33 575 377 650
          248 179 47 368 159 243
          146 305 41 87 116 91
          17 173 88 265 169 102
          306 197 747 767 789 825
          867 868 869 485 884 915
          518 107 238 606 607 357
          396 724 576 486 693 356
          725 11 290 162 334 419
          420 487 191 608 249 66
          694 726 651 488 103 489
          272 138 319 551 467 827
          45 284 130 10 152 36
          768 769 770 771 772 826
          843 870 871 872 916 917
          918 919 695 185 652 285
          398 250 397 655 25 519
          577 443 609 696 335 163
          610 55 74 444 239 80
          147 291 727 193 468 730
          378 612 260 611 5 552
          422 697 326 320 108 578
          423 653 446 183 140 654
          445 424 273 728 591 4
          379 164 613 579 261 132
          490 700 184 342 302 520
          231 729 292 447 698 9
          614 336 448 293 76 213
          294 52 731 491 492 470
          195 699 521 469 139 224
          773 774 775 776 777 778
          779 780 790 828 829 830
          831 832 833 212 873 874
          920 921 922 923 924 925
          701 449 743 742 21 64
          471 429 104 125 450 580
          639 656 65 251 734 68
          281 709 321 733 29 667
          581 527 156 122 399 702
          262 736 170 735 451 327
          553 380 657 421 282 381
          737 232 554 472 328 658
          400 452 358 522 703 295
          28 219 555 178 8 401
          523 582 337 583 738 94
          83 205 615 114 382 338
          661 53 255 705 556 659
          253 425 704 234 63 274
          454 618 453 359 660 233
          201 144 584 263 402 617
          426 165 706 404 663 664
          153 31 431 252 383 70
          585 403 455 665 616 296
          558 194 172 240 708 741
          557 27 360 619 171 427
          473 739 214 662 71 528
          586 100 740 707 303 322
          112 361 428 98 180 254
          128 16 620 744 339 524
          621 323 143 525 526 588
          587 559 493 494 340 732
          307 297 456 202 781 782
          783 784 785 786 787 788
          760 834 835 836 837 838
          839 840 841 875 876 877
          878 879 880 881 882 885
          926 927 928 929 930 931
          932 933 376
        </DataArray>
        <DataArray type="Int32" Name="type" format="ascii" RangeMin="1" RangeMax="2">
          2 2 2 2 2 2
          2 2 2 2 1 1
          1 2 2 2 2 2
          2 2 2 1 1 2
          2 2 1 1 2 1
          2 2 1 1 1 1
          1 1 1 1 1 1
          1 1 1 1 1 2
          2 1 2 2 2 2
          2 2 2 2 2 1
          2 1 2 1 1 2
          2 1 2 2 2 2
          2 2 2 2 2 2
          2 1 1 2 2 2
          2 2 2 1 1 2
          1 2 2 2 2 2
          2 2 2 1 1 2
          2 1 2 2 1 2
          2 2 2 2 1 2
          2 2 2 2 2 2
          2 2 2 2 2 2
          2 2 2 2 2 2
          2 2 2 2 1 1
          2 2 2 2 2 2
          2 2 2 2 2 2
          2 2 2 2 2 2
          2 2 2 2 2 2
          2 2 2 1 2 2
          2 2 2 2 2 2
          2 2 2 2 2 2
          2 2 2 2 2 2
          2 2 2 2 2 2
          2 2 2 2 1 2
          2 2 2 2 2 2
          2 2 2 2 2 2
          2 2 2 2 2 2
          2 2 2 2 2 2
          1 2 2 2 2 2
          2 2 2 1 2 2
          2 2 2 2 2 2
          2 1 2 2 2 1
          2 2 2 1 1 2
          2 2 2 2 2 1
          2 1 2 2 2 2
          2 2 1 1 1 1
          2 2 2 2 2 1
          1 2 2 1 2 1
          1 1 1 1 1 2
          2 2 2 2 2 2
          2 1 2 2 2 2
          2 1 1 2 2 2
          2 2 2 1 1 2
          2 1 2 2 2 2
          2 2 2 2 2 2
          2 2 2 2 2 2
          2 2 2 1 2 2
          2 2 2 2 2 2
          1 2 2 2 2 2
          2 2 2 2 1 2
          1 2 2 2 2 1
          2 2 2 1 2 2
          2 1 2 1 2 2
          2 2 2 1 2 1
          2 2 2 2 2 2
          2 1 2 1 2 2
          2 2 2 1 2 2
          1 1 1 2 2 2
          2 2 2 2 1 1
          2 1 1 2 2 2
          2 2 2 2 2 2
          2 2 2 2 2 2
          2 2 2 2 2 2
          2 2 1 1 1 2
          1 1 2 2 2 2
          1 1 2 2 2 2
          1 2 2 2 1 1
          1 2 2 2 1 1
          2 2 1 2 1 1
          2 2 2 2 2 2
          2 2 2 2 2 2
          2 2 2 2 2 2
          2 2 2 2 2 2
          2 2 2 2 2 2
          2 2 2 2 2 2
          1 2 2 1 2 2
          2 1 2 1 2 2
          1 2 2 2 1 1
          1 2 2 2 2 1
          2 2 1 2 2 2
          2 1 1 1 2 1
          1 1 1 1 1 1
          1 1 1 1 1 1
          1 1 1 2 1 2
          2 2 2 2 1 2
          2 2 2 2 2 2
          2 2 2 2 2 2
          2 1 2 2 2 2
          2 2 2 2 2 2
          2 2 2 2 1 2
          2 2 2 2 2 2
          1 1 1 1 1 1
          2 2 2 2 2 2
          1 2 2 2 2 2
          2 2 2 2 2 1
          2 2 2 2 1 2
          2 2 2 2 2 2
          2 1 2 2 2 1
          1 2 2 1 2 2
          2 2 2 2 1 2
          2 2 1 2 2 2
          2 2 2 2 1 2
          2 2 2 2 1 1
          2 2 2 2 2 2
          2 2 2 1 2 2
          2 2 2 2 2 1
          2 2 2 2 2 2
          2 1 2 2 2 2
          2 2 2 2 2 1
          2 2 2 2 2 2
          2 2 1 2 2 2
          2 2 2 2 2 2
          2 2 2 2 2 2
          2 2 2 2 1 2
          2 2 1 2 2 2
          2 2 2 2 2 2
          2 2 2 2 1 1
          2 1 2 2 2 2
          2 2 2 2 2 1
          2 2 2 2 2 2
          2 2 2 2 1 2
          2 2 2 2 2 2
          1 1 2 2 1 2
          2 2 2 2 2 1
          1 1 2 2 2 2
          2 1 1 2 2 2
          2 2 2 2 2 2
          2 2 2 2 2 2
          2 2 2 2 2 2
          2 2 2 2 2 2
          1 1 1 2 2 2
          2 2 2 2 2 2
          2 1 2 2 2 2
          2 1 2 2 2 2
          2 2 2 2 2 1
          2 1 2 2 2 2
          2 2 2 1 2 2
          2 1 2 2 2 2
          2 2 2 2 2 2
          2 2 2 2 2 2
          1 2 2 2 2 2
          2 2 2 2 2 2
          2 2 2 2 2 2
          2 2 2 2 2 2
          2 2 2 2 2 1
          2 2 2 2 2 2
          2 2 2
        </DataArray>
        <DataArray type="Float64" Name="diameter" format="ascii" RangeMin="7.8559456627e-07" RangeMax="1.9662542825e-06">
          9.6071346772e-07 1.0412767019e-06 8.6838413159e-07 9.2521944361e-07 9.2620941083e-07 9.2923787847e-07
          9.1129747409e-07 9.5707972962e-07 8.9840001844e-07 8.0793414272e-07 1.9459416415e-06 1.6273994497e-06
          1.8881346669e-06 8.0074821869e-07 1.0482724027e-06 1.0441350097e-06 8.7096935765e-07 9.5929001481e-07
          9.7464320589e-07 8.8344296755e-07 9.7341980611e-07 1.5576115193e-06 1.5768433119e-06 1.0218346392e-06
          1.0119620062e-06 1.0223040998e-06 1.5363281792e-06 1.7003082495e-06 8.3960779826e-07 1.6757723541e-06
          8.9911879819e-07 9.0336787087e-07 1.6752821107e-06 1.6278621107e-06 1.8477196492e-06 1.6085778584e-06
          1.7539358303e-06 1.6659736328e-06 1.6053952846e-06 1.8380089741e-06 1.9425939467e-06 1.8378176133e-06
          1.6916705727e-06 1.695492424e-06 1.7908816848e-06 1.7002317798e-06 1.7733218961e-06 1.0315533018e-06
          8.1237904055e-07 1.6249505025e-06 9.7252037e-07 9.3107025538e-07 9.2917086175e-07 8.5192860028e-07
          8.9004493715e-07 9.1577215272e-07 8.3030389446e-07 8.9495100558e-07 1.0054773548e-06 1.7053651319e-06
          8.1936854066e-07 1.6220551809e-06 9.9857219943e-07 1.8803488277e-06 1.7130873056e-06 1.0129772926e-06
          1.0379033425e-06 1.647504392e-06 1.0284623442e-06 1.0226618681e-06 9.429525793e-07 1.0420540666e-06
          9.6798320485e-07 9.9144111582e-07 8.6582583048e-07 8.9973036756e-07 8.9258728954e-07 9.1208872353e-07
          1.00261662e-06 1.8190566228e-06 1.6842846122e-06 8.4185785077e-07 8.3520481339e-07 1.0164447035e-06
          9.3900245027e-07 1.0073549837e-06 9.0990385422e-07 1.7347653843e-06 1.6477646099e-06 8.2078667128e-07
          1.6172219126e-06 8.6903295099e-07 9.582469757e-07 9.9856453889e-07 9.7165265961e-07 8.9867184444e-07
          8.4559389107e-07 9.9905910283e-07 9.0782933493e-07 1.9324032537e-06 1.8396130924e-06 8.2809422942e-07
          9.5694160478e-07 1.7464965143e-06 9.7887186193e-07 1.0286766532e-06 1.6589089751e-06 1.0419639247e-06
          9.76155702e-07 9.9120858648e-07 9.0977140296e-07 1.0004931984e-06 1.8937061852e-06 9.2323612459e-07
          9.2123085284e-07 9.3203693543e-07 9.3353248907e-07 1.0610236611e-06 9.8252673842e-07 1.0221520112e-06
          9.6587769009e-07 9.932869956e-07 9.2955188358e-07 9.6355710425e-07 1.0298014898e-06 9.8927432608e-07
          9.7398365027e-07 1.0303083198e-06 1.0321810852e-06 8.7024331467e-07 8.9582869556e-07 8.1328421241e-07
          8.6838711268e-07 8.3711193467e-07 9.9314103324e-07 8.418403586e-07 1.7239343971e-06 1.8972839568e-06
          9.0525652925e-07 9.2435025633e-07 8.6335603695e-07 1.0045708665e-06 9.3972522528e-07 9.4455479789e-07
          9.2209745145e-07 1.0236202116e-06 9.1902889722e-07 1.0383502696e-06 9.7219418721e-07 8.4481490581e-07
          8.9123874799e-07 7.9708538494e-07 8.8842315773e-07 8.720763567e-07 9.9706357311e-07 9.8813859562e-07
          9.8380979273e-07 1.0133615112e-06 9.6395618905e-07 8.1696867312e-07 9.4535690871e-07 9.8531358496e-07
          8.8982680019e-07 8.9285800587e-07 8.9049418344e-07 1.8307013637e-06 1.0018462862e-06 8.7192433945e-07
          1.0507147337e-06 9.7001782723e-07 9.0176209797e-07 8.0515098826e-07 9.8454472889e-07 9.5218047125e-07
          9.4957919277e-07 8.94488183e-07 9.3145547316e-07 9.2856326584e-07 8.6406191402e-07 9.4733131207e-07
          9.203872409e-07 9.3091434319e-07 8.861677218e-07 9.4453480836e-07 8.4530757778e-07 9.3615778551e-07
          9.2873443589e-07 8.2542252296e-07 8.7005376453e-07 9.5155514847e-07 9.1333982212e-07 9.079114256e-07
          8.828361494e-07 9.1347589256e-07 9.7125635223e-07 1.0263236426e-06 1.4886167938e-06 9.247228369e-07
          8.6744173289e-07 9.1277664412e-07 8.6210199802e-07 8.5579313728e-07 9.0049046286e-07 8.2677286071e-07
          8.8210133907e-07 8.4675411008e-07 8.2812162363e-07 8.6223294788e-07 8.8843478261e-07 8.2528654362e-07
          8.7102769077e-07 8.0364571312e-07 9.0900609071e-07 8.2430239241e-07 8.6118188859e-07 1.0485046684e-06
          8.7200566506e-07 8.3892353875e-07 9.2727786601e-07 8.3620879139e-07 1.0519887486e-06 9.1988463103e-07
          1.764532568e-06 9.6426679694e-07 1.0602459081e-06 1.0289823408e-06 1.0391161771e-06 9.2288228918e-07
          9.5513072375e-07 9.7009159945e-07 1.0590571148e-06 1.6933362946e-06 1.0226162753e-06 8.3533015747e-07
          9.2380400739e-07 9.9702914752e-07 9.9279659935e-07 1.059756401e-06 1.0085604349e-06 1.0119080614e-06
          1.0225611598e-06 1.7097163151e-06 9.9789052963e-07 9.4739548621e-07 8.9716012861e-07 1.7741280671e-06
          9.9717000383e-07 1.0410899458e-06 1.0055486981e-06 1.7262501451e-06 1.6668989607e-06 8.5224831931e-07
          9.2725218322e-07 8.3148362735e-07 8.6894867342e-07 9.5392135118e-07 9.5461957698e-07 1.8736947419e-06
          1.0557997523e-06 1.9319443495e-06 1.0420142486e-06 8.5323131585e-07 1.0290407396e-06 8.4130031698e-07
          9.3156045206e-07 9.3156171463e-07 1.8341541974e-06 1.6944203086e-06 1.828950928e-06 1.9366540568e-06
          1.0129961897e-06 9.1103629856e-07 8.5642327165e-07 8.7080827529e-07 9.0395967912e-07 1.8541924192e-06
          1.6948883991e-06 1.0055775511e-06 9.5601248937e-07 1.6744301748e-06 8.8513276484e-07 1.7803645593e-06
          1.9184463015e-06 1.8222337406e-06 1.7005079277e-06 1.6865797427e-06 1.7928642165e-06 1.0110082875e-06
          8.9867272712e-07 1.0121369001e-06 9.9025713438e-07 9.842404889e-07 1.0357098283e-06 8.4161722627e-07
          1.0109176534e-06 1.9006416151e-06 9.5213980481e-07 8.3546248793e-07 8.6252405586e-07 9.2537072559e-07
          9.4849140775e-07 1.8820117001e-06 1.768162171e-06 9.4336908975e-07 9.5126368999e-07 9.2809145302e-07
          1.0495262865e-06 8.0291728145e-07 1.0413821278e-06 1.6497473994e-06 1.4954485654e-06 9.2678772461e-07
          9.1102867925e-07 1.5115870551e-06 9.4515206944e-07 8.6892750661e-07 9.2574226362e-07 9.6289928945e-07
          8.9467517688e-07 9.4713647634e-07 9.3508548093e-07 8.5693025288e-07 8.9989760336e-07 9.3770558552e-07
          9.5115855493e-07 8.5009260841e-07 8.5582190422e-07 9.1504562588e-07 8.9487299495e-07 9.0877433237e-07
          9.0561132307e-07 8.9157183953e-07 8.6994287746e-07 1.6362494822e-06 8.3323443552e-07 8.2616563555e-07
          8.6301013873e-07 8.3373772912e-07 8.7510737168e-07 1.0202303927e-06 8.6076908037e-07 8.9451613396e-07
          1.6959610457e-06 8.9675241208e-07 8.9622184795e-07 8.7749898656e-07 8.6566895069e-07 8.2446130867e-07
          8.3345302841e-07 9.905948282e-07 1.0075126314e-06 9.5600767553e-07 1.6763604939e-06 1.0459985413e-06
          1.7014414052e-06 9.9760429344e-07 1.0153451553e-06 9.7013669192e-07 1.039206908e-06 1.7752439584e-06
          8.8254827323e-07 8.976495495e-07 8.3442298436e-07 1.6881133508e-06 8.116112968e-07 1.0582129806e-06
          8.1274635216e-07 1.6093147008e-06 9.4241772809e-07 1.8280703848e-06 9.6682455668e-07 1.0319923788e-06
          1.0581865339e-06 9.5646259572e-07 1.059066963e-06 1.874873238e-06 9.2787169409e-07 1.6986085337e-06
          1.0478670343e-06 1.0059271774e-06 9.3354958038e-07 1.0014240846e-06 9.5191612697e-07 1.0201209362e-06
          1.0598938094e-06 1.5740915008e-06 9.7049182889e-07 1.699008924e-06 9.3643135815e-07 9.9723301501e-07
          8.4919716558e-07 1.0172993521e-06 1.0328504735e-06 1.9320665316e-06 1.0136645682e-06 1.0019656318e-06
          1.88035273e-06 1.7746678903e-06 1.5544586576e-06 8.6867901683e-07 1.0362747994e-06 9.6356303417e-07
          9.7603531264e-07 9.9370171433e-07 1.0468384545e-06 9.5177410245e-07 1.9394506479e-06 1.6528837393e-06
          8.8704332733e-07 1.5407759454e-06 1.8997265837e-06 8.6581684313e-07 9.3747325816e-07 9.5482966052e-07
          9.8119472225e-07 9.4710453797e-07 1.0627249729e-06 8.8756880222e-07 9.2576823386e-07 9.1732646671e-07
          9.3628087415e-07 9.1502338317e-07 9.5293739166e-07 8.3569975338e-07 9.5215840219e-07 9.0334528714e-07
          1.0020674243e-06 9.2855278067e-07 9.6490285095e-07 9.8709331101e-07 1.0378683445e-06 1.0025950975e-06
          8.8434960314e-07 8.4187587749e-07 1.8377336004e-06 1.7353544979e-06 1.9662542825e-06 1.0378046088e-06
          1.6807992467e-06 1.7544973389e-06 9.2450635406e-07 8.2304639629e-07 9.3999579105e-07 1.052826494e-06
          1.7078393613e-06 1.6810807382e-06 9.8476371174e-07 9.9770228331e-07 9.390005447e-07 8.9971588705e-07
          1.764561088e-06 8.7885304766e-07 9.8515467984e-07 9.9511010048e-07 1.5917299894e-06 1.7134694481e-06
          1.6035210774e-06 9.5838666395e-07 9.8826947638e-07 1.0222559462e-06 1.5155413104e-06 1.7947621765e-06
          8.8218291914e-07 1.0528422885e-06 1.6087609831e-06 8.6784259968e-07 1.7537575849e-06 1.7390068442e-06
          8.6831739249e-07 8.4985889413e-07 9.4150575611e-07 9.1979506244e-07 9.6039467275e-07 8.8491732939e-07
          9.5125037438e-07 8.5471905987e-07 9.4448436176e-07 9.3446829786e-07 8.3229087983e-07 8.6308977631e-07
          9.4816043157e-07 9.0405139919e-07 9.0350369646e-07 9.516192036e-07 8.6758166049e-07 9.0184497432e-07
          9.3053210527e-07 8.5458213974e-07 9.1053218944e-07 8.5947452115e-07 8.8715977281e-07 9.1693376721e-07
          8.5596372027e-07 8.8626882834e-07 8.8592577994e-07 8.696827968e-07 8.4516223502e-07 8.2552949774e-07
          8.5843729549e-07 9.0589307291e-07 8.2150247996e-07 8.3341246659e-07 9.0370745651e-07 8.3426765619e-07
          1.635329e-06 1.0174467425e-06 9.3249134051e-07 1.8299546072e-06 9.9257038428e-07 9.2785018878e-07
          9.5799203742e-07 1.6688794855e-06 9.4429527265e-07 1.666797062e-06 8.9557387431e-07 9.9233274069e-07
          1.7570918157e-06 9.052028684e-07 9.6013509363e-07 9.0142191214e-07 1.6917348892e-06 1.5662227587e-06
          1.6820418208e-06 1.031006136e-06 9.0054831185e-07 9.7805957009e-07 9.1606991678e-07 1.6959610909e-06
          8.578959434e-07 1.0254009289e-06 1.7271483447e-06 1.0497220129e-06 9.4449410029e-07 1.0400582367e-06
          1.0614299076e-06 1.8097996341e-06 1.7793160858e-06 1.6881134096e-06 8.1625084022e-07 1.6765055866e-06
          1.792864288e-06 1.7547601961e-06 1.6975046351e-06 1.9117145486e-06 1.5180128508e-06 1.755354241e-06
          1.9000971154e-06 1.8048047365e-06 1.8807396245e-06 1.7240405829e-06 1.8149484238e-06 1.9605428589e-06
          1.7304995447e-06 1.8538672972e-06 1.6609382596e-06 9.3613860769e-07 1.4817545183e-06 9.1867721893e-07
          8.2725269183e-07 8.6902395154e-07 9.1227890478e-07 8.9082122079e-07 1.4965492452e-06 8.0957528715e-07
          8.8151625483e-07 8.1638403741e-07 9.5867131694e-07 9.7969609024e-07 1.0060921256e-06 8.8802777025e-07
          1.0217928456e-06 9.2374535294e-07 8.1568735049e-07 1.0576805798e-06 1.0061456736e-06 9.3957733369e-07
          9.9323759162e-07 1.603292651e-06 8.5363348489e-07 9.9476725258e-07 9.77627134e-07 9.7191744391e-07
          1.0209259766e-06 8.7456412789e-07 9.967969023e-07 1.0222432136e-06 9.8316946374e-07 8.8869823635e-07
          9.0570582811e-07 8.9122818556e-07 9.9903522718e-07 9.0348617842e-07 1.6925633019e-06 9.1242495448e-07
          9.0497523366e-07 9.3376493764e-07 1.0081197187e-06 9.2452200024e-07 9.0219640556e-07 8.685212014e-07
          1.7936146712e-06 1.77800447e-06 1.6687759945e-06 1.8554474998e-06 1.944280198e-06 1.8054697727e-06
          9.7105156488e-07 8.7881333038e-07 9.2415577193e-07 9.4512167581e-07 8.9276294846e-07 8.6805733096e-07
          1.5470272525e-06 8.6399017782e-07 8.6751850436e-07 8.3228036972e-07 9.0114711653e-07 7.9692879462e-07
          8.7087272368e-07 8.199547253e-07 9.0661384014e-07 8.3153356693e-07 1.0022969925e-06 1.6481370843e-06
          1.0049590688e-06 1.0230586905e-06 9.7405970355e-07 9.4313660413e-07 1.6225158627e-06 8.3924865366e-07
          9.6687026085e-07 1.0056959341e-06 1.0317238451e-06 8.9889524183e-07 1.0621566592e-06 8.6540336271e-07
          9.543321681e-07 1.817248738e-06 1.0264120565e-06 8.3397155857e-07 1.0502103098e-06 1.8656663305e-06
          1.7711722544e-06 8.435975361e-07 9.2692228213e-07 1.7614915511e-06 8.4834577089e-07 9.5572388542e-07
          9.86316306e-07 1.0325421359e-06 1.03420594e-06 9.6804289792e-07 1.7543330621e-06 1.0518285848e-06
          8.9074601742e-07 9.4173246362e-07 1.6655331431e-06 9.5465889505e-07 1.0011306817e-06 8.8769877898e-07
          1.0303368392e-06 9.8959885964e-07 9.8502701604e-07 9.9649567004e-07 1.9598457785e-06 1.0043078654e-06
          9.310168036e-07 9.3302267119e-07 9.7263689457e-07 9.7578411027e-07 1.57089262e-06 1.8712512632e-06
          1.0480948112e-06 9.7872454219e-07 9.8603056053e-07 1.013072876e-06 8.8465792471e-07 9.5521728239e-07
          1.0484553903e-06 9.1890829726e-07 9.1341104858e-07 1.5929411179e-06 8.6441522234e-07 1.0512173666e-06
          9.4680797274e-07 9.4302654914e-07 9.1014120413e-07 8.7430168752e-07 9.8677908534e-07 1.8968858984e-06
          9.8878683894e-07 1.0391815932e-06 8.5348733164e-07 9.4172523928e-07 9.1997451767e-07 8.8733457817e-07
          9.1472391644e-07 1.8136358029e-06 9.2964873721e-07 9.5287630684e-07 1.0539768159e-06 8.9178116778e-07
          9.5154904003e-07 9.6609505803e-07 8.8283657232e-07 8.6381971036e-07 8.6307796889e-07 1.7499886974e-06
          9.588656379e-07 8.6076483991e-07 9.3912870938e-07 9.6429916794e-07 8.958126802e-07 9.0935011229e-07
          9.2610777067e-07 9.6458247347e-07 1.5411445501e-06 9.5592381369e-07 8.5857005888e-07 8.5502735183e-07
          9.2067728998e-07 8.8807920393e-07 9.2398114758e-07 9.4604642528e-07 9.1149206567e-07 9.0042585371e-07
          8.8122148172e-07 8.4947462766e-07 8.7512054629e-07 8.2006541516e-07 8.4100939361e-07 8.376333573e-07
          9.6449485931e-07 8.8483417733e-07 8.929938946e-07 9.9896748337e-07 1.60437611e-06 9.689905051e-07
          9.6902847009e-07 9.7198293896e-07 1.6119889508e-06 9.4116354157e-07 9.1868610469e-07 9.8925930682e-07
          1.0363536622e-06 1.0099617383e-06 9.0493893344e-07 9.5011634849e-07 9.4395371e-07 9.3880353573e-07
          9.4081384086e-07 9.66768101e-07 8.5318423138e-07 9.2471650711e-07 1.7424656111e-06 1.6045298354e-06
          1.0482767585e-06 1.6737368289e-06 1.0551381567e-06 9.7888386765e-07 9.3142483911e-07 9.6923746252e-07
          9.4563304708e-07 9.0241826148e-07 9.3399343561e-07 9.1806561513e-07 9.4352781033e-07 1.6730863514e-06
          8.8019958417e-07 9.9558895111e-07 1.0327965521e-06 9.3397177655e-07 9.4353302155e-07 9.2486100039e-07
          9.5263860363e-07 8.9915527611e-07 1.0141484197e-06 8.0181818949e-07 1.6191735964e-06 9.6312350891e-07
          9.6103033493e-07 8.6193084119e-07 9.7680981982e-07 8.0163520595e-07 9.5325699152e-07 8.800974967e-07
          1.7919961758e-06 1.7469583991e-06 1.046906854e-06 1.0533382134e-06 1.8391965041e-06 9.376097064e-07
          1.0575849496e-06 1.0199503287e-06 1.0524905064e-06 1.0612451657e-06 9.8096269993e-07 1.8425387596e-06
          1.9173609373e-06 1.749274087e-06 9.694878152e-07 9.7391611457e-07 1.0186866375e-06 8.5884721227e-07
          1.0262107759e-06 1.6947212175e-06 1.7275606532e-06 1.0125857538e-06 8.2296528201e-07 1.0383079206e-06
          1.0338888187e-06 9.5144955171e-07 9.7624621357e-07 9.317539327e-07 9.9163734871e-07 1.0276942321e-06
          8.7444811793e-07 1.0299383951e-06 8.4003014762e-07 1.0010977618e-06 9.4105027566e-07 1.0494177626e-06
          1.0278053012e-06 1.0199739885e-06 8.0548634185e-07 9.2280753734e-07 1.0200839948e-06 9.6674062329e-07
          9.4110479946e-07 9.5676352753e-07 9.2947481374e-07 9.9901286251e-07 8.9807596951e-07 9.4299018226e-07
          1.8500737701e-06 1.6205283031e-06 1.6420737091e-06 9.9457646757e-07 8.9702329945e-07 9.9485980711e-07
          1.0627417523e-06 9.1059697336e-07 9.0642184087e-07 1.0480637677e-06 9.9235679212e-07 9.8207787789e-07
          9.035774481e-07 1.7252090749e-06 9.2995513361e-07 9.6127295411e-07 9.491145186e-07 8.6906152015e-07
          8.2486574656e-07 1.7952770792e-06 9.9731231507e-07 1.0144261726e-06 9.8881593945e-07 9.3032041401e-07
          9.353195117e-07 8.8877024178e-07 1.0610505753e-06 1.00039821e-06 8.6692764817e-07 1.6520269678e-06
          1.0569062645e-06 1.5532197298e-06 9.6355158082e-07 1.0191127258e-06 9.083482141e-07 9.7387208689e-07
          1.0278471408e-06 9.7909305211e-07 9.7515145677e-07 1.6708720208e-06 8.4773824229e-07 1.045847161e-06
          9.0373540488e-07 1.9022289337e-06 9.4485145415e-07 9.052815127e-07 8.5202323402e-07 9.3843977377e-07
          1.0383728246e-06 9.7722719404e-07 8.1012964297e-07 1.0110929844e-06 7.976153516e-07 1.0323052562e-06
          1.0265971523e-06 1.0150574118e-06 9.3909611375e-07 8.3125418234e-07 9.9633903688e-07 9.8310808731e-07
          1.7646438108e-06 8.9886267201e-07 8.9573521491e-07 1.0479919901e-06 8.6179411489e-07 9.3212046997e-07
          9.0356806549e-07 8.9353428953e-07 8.7090761462e-07 8.9103333646e-07 9.2036644475e-07 8.6475797326e-07
          9.2600413258e-07 8.4760753802e-07 8.33318811e-07 9.2935918644e-07 8.7197959445e-07 8.5132537558e-07
          9.1324197031e-07 8.2241811262e-07 9.3570360278e-07 8.8449942565e-07 8.7541557826e-07 9.1503903851e-07
          8.8735203182e-07 9.3341687364e-07 9.0176730558e-07 9.2544341893e-07 8.2596588966e-07 1.5764582682e-06
          7.8559456627e-07 9.0829221532e-07 8.6190318705e-07 8.7903968532e-07 8.1609753438e-07 8.8059341165e-07
          8.3638223576e-07 9.1149623291e-07 8.6858844332e-07
        </DataArray>
      </PointData>
      <CellData>
      </CellData>
      <Points>
        <DataArray type="Float32" Name="Points" NumberOfComponents="3" format="ascii" RangeMin="9.7027272642e-06" RangeMax="0.00013275663337">
          1.8479047867e-05 2.3457636416e-05 4.673709384e-07 2.0093330022e-05 2.3606075047e-05 5.0599874157e-07
          1.9085846361e-05 2.2786372938e-05 4.3520816462e-07 1.9745064492e-05 2.2872380214e-05 1.0406312185e-06
          4.9146990932e-05 1.2525397324e-05 4.047190032e-06 2.0297695301e-05 2.1832662242e-05 1.2222743635e-06
          1.8328108126e-05 2.2796928533e-05 1.1073265114e-06 2.0893578039e-05 2.3287802833e-05 9.8772909496e-07
          1.7493088308e-05 2.2580275981e-05 1.2246813412e-06 4.9605947424e-05 1.2640001842e-05 5.2182617765e-06
          4.9561876949e-06 8.6039972302e-06 1.8620859237e-06 4.1228766349e-05 1.5596322555e-05 1.6597579133e-06
          1.2815120499e-05 1.70887688e-05 1.7139129795e-06 1.8687656848e-05 2.2118645575e-05 2.1285300136e-06
          1.9532431907e-05 2.2670061298e-05 1.9965423235e-06 2.0503430278e-05 2.2685329895e-05 1.6462258827e-06
          1.8887796614e-05 2.337985643e-05 1.4380974562e-06 2.1145160645e-05 2.2968715712e-05 2.3227678412e-06
          1.9734723537e-05 2.3590613637e-05 2.3280729238e-06 2.0549352485e-05 2.3943854103e-05 2.5331930829e-06
          4.9610291171e-05 1.2271815649e-05 2.9746524888e-06 1.3306731489e-05 1.5428926417e-05 1.8265350263e-06
          4.0055059799e-05 1.5440646166e-05 2.7424523523e-06 2.0422112357e-05 2.2947440812e-05 2.9607956549e-06
          1.886966129e-05 2.2968228222e-05 2.6859052014e-06 1.9138331481e-05 2.3920769308e-05 3.0609248824e-06
          5.5504751799e-06 7.2557595558e-06 3.26941813e-06 4.2735623538e-06 8.0570898717e-06 3.8204875636e-06
          4.9384430895e-05 1.4494011339e-05 3.5716341245e-06 4.1323142796e-05 1.487384543e-05 3.7446197894e-06
          4.9616290198e-05 1.3681971723e-05 3.6845876821e-06 4.951948722e-05 1.3118617062e-05 4.5337769734e-06
          3.1827032217e-05 8.7972566689e-06 5.1133883971e-06 1.4424928168e-06 9.2225254775e-06 5.4627448662e-06
          4.1567280277e-05 1.5736279238e-05 5.240563496e-06 3.1028288504e-05 7.5349739745e-06 5.8028435888e-06
          1.7996519091e-05 5.3870016927e-06 6.2920512391e-06 1.64406556e-05 5.9983908614e-06 6.0536449382e-06
          1.4558612747e-05 8.2929709606e-06 6.9553166213e-06 3.2143700082e-05 9.155754924e-06 6.826801382e-06
          2.0650491024e-06 1.0941496839e-05 6.9451757554e-06 2.586930168e-05 1.6633373889e-05 6.500778909e-06
          1.485477128e-06 9.2306272563e-06 7.1210743045e-06 1.4643594113e-05 9.6009953268e-06 7.950527106e-06
          4.6099794417e-05 1.0776147064e-05 7.8555258369e-06 4.6686385758e-05 1.2385934497e-05 8.0401259765e-06
          2.5338909836e-05 1.6961543224e-05 8.1930193119e-06 4.9918413424e-05 1.2831186723e-05 1.6538193677e-06
          4.9879581638e-05 1.4193418792e-05 5.6437625062e-06 1.3495735402e-05 1.5515885025e-05 3.3814785638e-06
          2.1372219635e-05 2.3869644792e-05 2.183682227e-06 4.9738027883e-05 1.4141484826e-05 2.6801835702e-06
          1.8768476366e-05 2.1993328119e-05 6.3583473775e-07 2.0113584469e-05 2.228962876e-05 4.9505769084e-07
          1.8791861294e-05 2.3798842449e-05 2.2052213353e-06 4.999817611e-05 1.3758151908e-05 4.9372447393e-06
          1.9412977053e-05 2.3704238629e-05 1.6196390789e-06 1.866972525e-05 2.2190541131e-05 1.2995396901e-06