<?xml version="1.0"?>
<VTKFile type="UnstructuredGrid" version="0.1" byte_order="LittleEndian" header_type="UInt32" compressor="vtkZLibDataCompressor">
  <UnstructuredGrid>
    <Piece NumberOfPoints="128" NumberOfCells="128">
      <PointData>
        <DataArray type="Int32" Name="id" format="ascii" RangeMin="1" RangeMax="128">
          75 50 19 59 97 42
          49 15 22 44 3 118
          123 93 40 1 117 78
          24 7 54 20 109 62
          106 84 61 119 124 77
          32 51 85 60 81 105
          18 92 82 67 14 26
          57 12 89 121 111 64
          34 37 90 46 101 86
          79 35 2 69 115 48
          72 39 13 30 113 99
          23 96 95 120 126 110
          43 56 73 33 6 38
          116 88 47 87 91 17
          41 58 102 10 127 107
          11 66 103 45 36 68
          55 25 80 5 74 4
          108 9 76 52 125 104
          21 29 65 28 8 94
          83 114 63 53 27 31
          70 16 100 112 71 98
          122 128
        </DataArray>
        <DataArray type="Int32" Name="type" format="ascii" RangeMin="1" RangeMax="2">
          2 1 1 1 1 1
          1 1 1 1 1 1
          1 1 1 1 1 2
          1 1 1 1 2 2
          2 1 2 1 2 2
          1 1 1 1 1 2
          1 1 1 2 1 1
          1 1 1 2 2 2
          1 1 1 1 1 1
          2 1 1 2 1 1
          2 1 1 1 2 1
          1 1 1 1 1 1
          1 1 2 1 1 1
          1 1 1 1 1 1
          1 1 1 1 2 2
          1 2 1 1 1 2
          1 1 1 1 2 1
          2 1 2 1 2 1
          1 1 2 1 1 1
          1 2 2 1 1 1
          2 1 1 2 2 1
          2 2
        </DataArray>
        <DataArray type="Float64" Name="diameter" format="ascii" RangeMin="7.9816036056e-07" RangeMax="1.9639478559e-06">
          1.0145737436e-06 1.9402858295e-06 1.5377977499e-06 1.5955713423e-06 1.7582742227e-06 1.7036656334e-06
          1.9521168537e-06 1.535152154e-06 1.6445105789e-06 1.7983137205e-06 1.7391586657e-06 1.6531797092e-06
          1.6154262725e-06 1.7893239102e-06 1.6615764464e-06 1.565258436e-06 1.6442731831e-06 8.5776014027e-07
          1.8692997773e-06 1.7864826937e-06 1.6850446583e-06 1.6847094199e-06 9.561271305e-07 8.9094819596e-07
          8.7511340016e-07 1.8565018554e-06 9.7543800013e-07 1.4965181537e-06 8.4900450145e-07 8.5301264695e-07
          1.7300224714e-06 1.7025370083e-06 1.817354557e-06 1.9639478421e-06 1.876147341e-06 8.9577300627e-07
          1.8101447113e-06 1.6831787859e-06 1.8573960228e-06 9.9849694665e-07 1.8634611159e-06 1.7880587855e-06
          1.7247886071e-06 1.8811307769e-06 1.6549729833e-06 9.1498843227e-07 9.5386849555e-07 8.8884353156e-07
          1.6816703497e-06 1.68470938e-06 1.8184976677e-06 1.6886673604e-06 1.6226543992e-06 1.8565018093e-06
          8.9127352349e-07 1.7864826769e-06 1.6074484855e-06 9.9323403868e-07 1.5326681464e-06 1.636695392e-06
          9.1244420621e-07 1.7940769431e-06 1.6899318035e-06 1.6751011402e-06 9.0313037646e-07 1.6103926721e-06
          1.710737319e-06 1.5933516685e-06 1.7596607888e-06 1.5538499929e-06 1.5268328218e-06 1.5739996122e-06
          1.7864826974e-06 1.6720765829e-06 8.896904432e-07 1.6434505834e-06 1.6847093813e-06 1.7117153676e-06
          1.5857758969e-06 1.8379468602e-06 1.7445168214e-06 1.8565018081e-06 1.7981233082e-06 1.84563776e-06
          1.7067279972e-06 1.881130788e-06 1.5493364438e-06 1.7628206842e-06 7.9816036056e-07 8.7440784724e-07
          1.5688299243e-06 9.7468171008e-07 1.7288059415e-06 1.691834623e-06 1.8692997976e-06 8.1615731661e-07
          1.7292784007e-06 1.8811307813e-06 1.9056155995e-06 1.7036656283e-06 1.033980853e-06 1.8101447261e-06
          8.7373892988e-07 1.9639478559e-06 9.7402062029e-07 1.7746516989e-06 8.7584417916e-07 1.6012943828e-06
          1.6326795473e-06 1.7010721134e-06 8.6608718505e-07 1.7025369973e-06 1.7864826777e-06 1.7893239174e-06
          1.8761473322e-06 9.3937103815e-07 8.7573686959e-07 1.6615764524e-06 1.7544288382e-06 1.6293333585e-06
          8.2618453287e-07 1.8101447311e-06 1.5581394783e-06 8.6335690311e-07 9.6236768431e-07 1.7115826336e-06
          8.5724654741e-07 8.6647712415e-07
        </DataArray>
      </PointData>
      <CellData>
      </CellData>
      <Points>
        <DataArray type="Float32" Name="Points" NumberOfComponents="3" format="ascii" RangeMin="9.7749608529e-06" RangeMax="0.0001313767072">
          1.9700000848e-05 2.3399999918e-05 9.4000000672e-07 1.3099999705e-05 1.6300000425e-05 2.140000106e-06
          4.9550094445e-06 8.5137453425e-06 2.0178206341e-06 4.075212928e-05 1.5488742065e-05 2.5468686999e-06
          4.1271257942e-05 1.5512319806e-05 4.1451303332e-06 1.7200000002e-05 5.7000002016e-06 6.1699997786e-06
          3.1799998396e-05 8.6800000645e-06 6.1800001276e-06 2.0089817099e-06 1.07805281e-05 6.8983194979e-06
          1.4600000213e-05 8.9300001491e-06 7.4399999903e-06 2.5600000299e-05 1.6800000594e-05 7.3599999268e-06
          4.6400000429e-05 1.1600000107e-05 7.9499995991e-06 1.5131198552e-06 9.3685048341e-06 6.320835837e-06
          4.9447376114e-06 7.7268823588e-06 3.3756064113e-06 1.3924001905e-05 3.8714064431e-05 1.6485711285e-06
          1.4458059013e-05 4.0234852349e-05 2.2705369247e-06 2.9405133319e-05 4.0593193262e-05 3.5915199987e-06
          2.9394614103e-05 3.978746463e-05 4.9818563639e-06 4.571826139e-05 4.1185059672e-05 4.3057957555e-06
          3.9300000935e-05 3.8400001358e-05 5.3700000535e-06 1.7500000467e-05 4.059999992e-05 5.6099997892e-06
          3.1066832889e-05 4.8838821385e-05 4.9230152399e-06 4.8594251894e-06 2.9488166547e-05 7.1577564995e-06
          4.6762065722e-06 3.2778447348e-05 7.1547756306e-06 5.3423477766e-06 3.3401494875e-05 7.1842746365e-06
          3.6817080399e-05 4.0157898184e-05 7.7708373283e-06 5.403996056e-06 2.9512897527e-05 8.8343522293e-06
          3.7201953091e-05 4.0246482968e-05 8.5896590463e-06 3.1696774386e-05 4.971080125e-05 6.1084933805e-06
          4.5482946007e-05 4.1015809984e-05 5.0901803661e-06 3.6908815673e-05 7.038883632e-05 2.2336753318e-06
          3.5305653e-05 7.2233000537e-05 2.0628333459e-06 3.7592144508e-06 5.7288154494e-05 3.207106829e-06
          3.5294095142e-05 7.1347676567e-05 3.5905163713e-06 1.5699999494e-05 6.7499997385e-05 4.4899998102e-06
          4.3042286961e-06 5.7312907302e-05 4.8850679377e-06 4.1880543904e-06 7.3255818279e-05 4.831631486e-06
          9.6699995993e-06 5.4100000852e-05 5.8999999055e-06 2.3145315936e-05 6.5405169153e-05 5.9290746321e-06
          9.2680948001e-06 6.7097244028e-05 5.9116910052e-06 4.5910442168e-06 7.3348572187e-05 5.6890012274e-06
          6.6154275373e-06 6.2495353632e-05 6.5639173954e-06 2.3669044822e-05 6.39550708e-05 6.7124033194e-06
          9.813986253e-06 6.8651730544e-05 6.5474396251e-06 5.1299998631e-06 7.0499998401e-05 7.000000096e-06
          7.3081860137e-06 6.3454281189e-05 7.8676075645e-06 3.6269662814e-05 6.9791036367e-05 2.2053716293e-06
          4.8955029342e-05 8.4077342763e-05 1.2147236248e-06 4.9623446102e-05 8.4702522145e-05 1.2443231299e-06
          9.1063575383e-06 8.3847568021e-05 1.913985443e-06 3.8539426896e-05 8.4588165919e-05 1.697756602e-06
          5.2685832088e-06 7.8698634752e-05 2.8122601634e-06 5.8135324252e-06 8.025043644e-05 3.4469112506e-06
          8.6218751676e-06 8.4147337475e-05 3.4597476315e-06 3.9083995944e-05 8.4612896899e-05 3.3743519907e-06
          7.1072563514e-06 8.6621112132e-05 3.180804697e-06 4.3299998651e-05 7.6700001955e-05 3.8200000745e-06
          3.9940685383e-05 9.1308938863e-05 3.8734956433e-06 7.8320481407e-06 8.6787935288e-05 4.7228168114e-06
          2.5005148927e-05 8.9349283371e-05 4.5460674301e-06 4.5619879529e-05 7.8031262092e-05 5.3218464018e-06
          2.9329074096e-05 7.4392839451e-05 6.2097446971e-06 4.7351011744e-05 7.6716918556e-05 6.3132415562e-06
          2.5414321499e-05 8.9665780251e-05 6.0662709984e-06 4.7705529141e-05 9.5523493655e-05 6.6892334871e-06
          2.907212729e-05 7.4208030128e-05 7.0662467806e-06 1.1957652532e-05 7.597100921e-05 6.9975271799e-06
          1.2456693185e-05 7.4589268479e-05 7.7439299275e-06 4.8012585466e-05 7.7632685134e-05 7.5582502177e-06
          4.7694218665e-05 9.4657152658e-05 8.184161743e-06 4.6166285756e-05 7.9530771472e-05 5.4938000176e-06
          3.8496462366e-05 9.1876463557e-05 3.6521962556e-06 6.3464547566e-05 1.4851919332e-05 2.34783829e-06
          5.6400000176e-05 2.2800000806e-05 2.2599999738e-06 6.3949744799e-05 1.3508503798e-05 3.0735404835e-06
          5.0986760471e-05 1.3342986676e-05 3.9773403842e-06 5.8740715758e-05 5.4010611166e-06 4.4419798542e-06
          8.0139427155e-05 1.8888165869e-05 4.2877568376e-06 9.3605645816e-05 8.0526033344e-06 4.923513643e-06
          5.8267523855e-05 5.6938397393e-06 5.9517260524e-06 9.3018323241e-05 1.6097897969e-05 5.541959581e-06
          5.4458614613e-05 1.7027450667e-05 5.5875561884e-06 8.0683996202e-05 1.8912898668e-05 5.9643521126e-06
          9.3594098871e-05 7.1680897236e-06 6.4498017309e-06 7.0900001447e-05 1.2700000298e-05 6.1400000959e-06
          9.356377268e-05 1.7651120288e-05 6.1771906985e-06 8.7400003395e-05 3.549999974e-06 6.6600000537e-06
          5.5104948842e-05 1.7922116967e-05 6.8038798418e-06 9.3100003141e-05 2.3900000087e-05 7.4300000961e-06
          5.0632450439e-05 1.3261435925e-05 3.2235373055e-06 5.3017225582e-05 4.8557933042e-05 2.0611450964e-06
          5.7257777371e-05 3.8489000872e-05 2.55425266e-06 5.3401792684e-05 4.8646445066e-05 2.8793158435e-06
          5.7765664678e-05 3.8512065657e-05 4.1179132495e-06 7.2800001362e-05 4.9700000091e-05 5.4199999795e-06
          8.859999798e-05 2.5900000765e-05 8.0899999375e-06 7.4591836892e-05 7.3972958489e-05 1.3529235048e-06
          5.2232768212e-05 5.3387862863e-05 2.0572563244e-06 9.2800000857e-05 5.4000000091e-05 2.6299999263e-06
          5.2790703194e-05 5.3413201385e-05 3.7750032789e-06 7.4399998994e-05 7.1700000262e-05 3.7800000428e-06
          7.9199999163e-05 7.0299996878e-05 4.3400000322e-06 7.6600001194e-05 5.6500000937e-05 4.8699998842e-06
          7.5617295806e-05 5.7457946241e-05 5.2612881518e-06 8.7699998403e-05 5.0400001783e-05 5.9399999373e-06
          7.6001713751e-05 5.7546429161e-05 6.0791562646e-06 7.9899997218e-05 6.6799999331e-05 7.1700001172e-06
          7.3986811913e-05 7.3407070886e-05 1.3261310414e-06 7.4357849371e-05 8.6170461145e-05 1.4478238199e-06
          5.0700000429e-05 7.5800002378e-05 1.5699999949e-06 7.4856485298e-05 8.4789855464e-05 2.1936145913e-06
          9.761806723e-05 8.7884916866e-05 2.6064408303e-06 8.2339211076e-05 8.9088156528e-05 3.977106644e-06
          7.1800001024e-05 9.4000002719e-05 4.5400001909e-06 7.0924004831e-05 8.9314067736e-05 5.4085712691e-06
          8.2884231233e-05 8.9112909336e-05 5.6550679801e-06 8.6055464635e-05 7.7777753177e-05 6.4047430897e-06
          8.6723041022e-05 7.8402139479e-05 6.4343053054e-06 7.145806012e-05 9.0834852017e-05 6.0305369516e-06
          7.5358337199e-05 9.4027062005e-05 6.5670278673e-06 6.4105275669e-05 8.9803870651e-05 7.473099231e-06
          5.4397340136e-05 9.5508643426e-05 7.1508397923e-06 9.1599998996e-05 8.3600003563e-05 7.7900003816e-06
          7.6005198935e-05 9.4922463177e-05 7.7843496911e-06 9.2516384029e-05 8.4557737864e-05 7.9793553596e-06
          9.2902730103e-05 8.4646664618e-05 8.8013111963e-06 6.4094478148e-05 8.8976754341e-05 8.9003333414e-06
          9.738314111e-05 8.7715947302e-05 3.3895416891e-06 5.3583298723e-05 9.569581016e-05 7.0671699177e-06
        </DataArray>
      </Points>
      <Cells>
        <DataArray type="Int64" Name="connectivity" format="ascii" RangeMin="0" RangeMax="127">
          0 1 2 3 4 5
          6 7 8 9 10 11
          12 13 14 15 16 17
          18 19 20 21 22 23
          24 25 26 27 28 29
          30 31 32 33 34 35
          36 37 38 39 40 41
          42 43 44 45 46 47
          48 49 50 51 52 53
          54 55 56 57 58 59
          60 61 62 63 64 65
          66 67 68 69 70 71
          72 73 74 75 76 77
          78 79 80 81 82 83
          84 85 86 87 88 89
          90 91 92 93 94 95
          96 97 98 99 100 101
          102 103 104 105 106 107
          108 109 110 111 112 113
          114 115 116 117 118 119
          120 121 122 123 124 125
          126 127
        </DataArray>
        <DataArray type="Int64" Name="offsets" format="ascii" RangeMin="1" RangeMax="128">
          1 2 3 4 5 6
          7 8 9 10 11 12
          13 14 15 16 17 18
          19 20 21 22 23 24
          25 26 27 28 29 30
          31 32 33 34 35 36
          37 38 39 40 41 42
          43 44 45 46 47 48
          49 50 51 52 53 54
          55 56 57 58 59 60
          61 62 63 64 65 66
          67 68 69 70 71 72
          73 74 75 76 77 78
          79 80 81 82 83 84
          85 86 87 88 89 90
          91 92 93 94 95 96
          97 98 99 100 101 102
          103 104 105 106 107 108
          109 110 111 112 113 114
          115 116 117 118 119 120
          121 122 123 124 125 126
          127 128
        </DataArray>
        <DataArray type="UInt8" Name="types" format="ascii" RangeMin="1" RangeMax="1">
          1 1 1 1 1 1
          1 1 1 1 1 1
          1 1 1 1 1 1
          1 1 1 1 1 1
          1 1 1 1 1 1
          1 1 1 1 1 1
          1 1 1 1 1 1
          1 1 1 1 1 1
          1 1 1 1 1 1
          1 1 1 1 1 1
          1 1 1 1 1 1
          1 1 1 1 1 1
          1 1 1 1 1 1
          1 1 1 1 1 1
          1 1 1 1 1 1
          1 1 1 1 1 1
          1 1 1 1 1 1
          1 1 1 1 1 1
          1 1 1 1 1 1
          1 1 1 1 1 1
          1 1 1 1 1 1
          1 1
        </DataArray>
      </Cells>
    </Piece>
  </UnstructuredGrid>
</VTKFile>
