<?xml version="1.0"?>
<VTKFile type="UnstructuredGrid" version="0.1" byte_order="LittleEndian" header_type="UInt32" compressor="vtkZLibDataCompressor">
  <UnstructuredGrid>
    <Piece NumberOfPoints="303" NumberOfCells="303">
      <PointData>
        <DataArray type="Int32" Name="id" format="ascii" RangeMin="1" RangeMax="303">
          133 206 75 19 134 174
          244 59 50 123 241 97
          49 42 118 131 15 44
          22 3 196 264 276 298
          203 93 40 1 245 78
          150 256 175 54 117 176
          124 24 7 257 215 109
          119 20 207 62 154 246
          106 225 84 141 220 258
          198 208 161 137 166 188
          61 266 267 277 286 299
          209 121 77 32 177 148
          226 235 51 85 60 105
          186 227 81 259 151 167
          129 67 221 155 18 92
          288 192 160 216 145 135
          14 82 57 189 228 26
          158 113 89 12 268 269
          275 237 283 287 300 210
          111 222 37 247 34 142
          90 156 199 168 229 79
          187 236 217 46 101 157
          2 126 35 86 69 182
          115 136 48 200 72 149
          39 120 278 211 13 99
          204 30 23 230 96 95
          242 270 271 289 181 301
          43 127 110 218 190 56
          73 33 159 223 248 6
          38 179 146 47 87 116
          91 17 173 88 41 169
          102 58 197 243 265 279
          280 107 238 162 11 66
          249 191 138 212 103 45
          130 10 152 36 272 284
          290 250 185 125 55 25
          163 239 80 147 74 260
          5 193 108 132 183 140
          4 231 164 261 184 9
          195 76 213 52 139 224
          273 285 291 292 293 294
          302 64 104 68 21 29
          251 65 122 262 170 232
          28 178 219 8 94 83
          205 63 255 233 234 114
          53 201 144 263 165 153
          252 70 171 253 194 240
          31 27 128 172 100 254
          180 112 16 214 71 202
          98 143 274 282 281 295
          296 297 303
        </DataArray>
        <DataArray type="Int32" Name="type" format="ascii" RangeMin="1" RangeMax="2">
          2 2 2 1 1 2
          2 1 1 1 1 1
          1 1 1 1 1 1
          1 1 1 1 2 2
          1 1 1 1 2 2
          1 2 2 1 1 2
          2 1 1 2 1 2
          1 1 2 2 2 2
          2 2 1 2 2 2
          2 2 2 2 1 2
          2 2 2 2 2 2
          2 2 2 1 2 2
          2 2 1 1 1 2
          1 2 1 2 1 1
          1 2 2 2 1 1
          2 1 1 1 1 2
          1 1 1 2 2 1
          2 2 1 1 2 2
          1 2 1 2 2 2
          2 2 1 2 1 2
          1 2 2 1 2 2
          1 2 1 1 1 2
          1 1 1 1 2 2
          1 2 1 2 2 2
          1 1 2 2 1 1
          1 1 1 2 1 1
          1 2 2 2 2 2
          1 2 1 1 2 1
          2 1 2 2 2 1
          1 1 1 1 1 1
          1 1 1 1 1 1
          1 1 1 1 1 2
          2 2 2 2 1 2
          2 2 2 2 1 1
          1 1 1 1 2 1
          2 2 2 2 1 1
          2 2 1 1 2 2
          1 1 2 2 2 1
          1 2 2 2 2 1
          2 2 2 1 2 1
          2 1 2 2 2 2
          2 2 1 2 1 1
          2 2 2 2 2 2
          1 2 1 1 1 1
          1 2 1 2 2 2
          1 2 2 2 2 1
          2 2 2 2 1 2
          1 1 2 2 1 2
          2 2 1 2 2 2
          1 2 2 2 2 2
          2 2 2
        </DataArray>
        <DataArray type="Float64" Name="diameter" format="ascii" RangeMin="8.1349408254e-07" RangeMax="1.9675934836e-06">
          8.721429583e-07 1.058263446e-06 8.9314923952e-07 1.7676775423e-06 1.7151661381e-06 9.4933169278e-07
          9.9569996266e-07 1.8340875073e-06 1.8220392934e-06 1.8569104755e-06 1.5222579578e-06 1.6784534562e-06
          1.8799671936e-06 1.9583404434e-06 1.9003075392e-06 1.6696323397e-06 1.7646364928e-06 1.6694585078e-06
          1.890342517e-06 1.6268222913e-06 1.6108711134e-06 1.5444766454e-06 9.194621291e-07 8.2367159485e-07
          1.549139784e-06 1.7080935551e-06 1.9099594657e-06 1.7992432496e-06 9.777010463e-07 9.5667307784e-07
          1.6524161846e-06 8.7956895036e-07 9.3311324178e-07 1.9369358745e-06 1.8900696252e-06 9.8889306625e-07
          9.6176176851e-07 1.755379343e-06 1.6710895293e-06 9.1505678158e-07 1.5865031859e-06 8.4809095955e-07
          1.7202272424e-06 1.9365505225e-06 9.871872688e-07 9.8185116897e-07 9.5943034125e-07 9.6960901146e-07
          1.0375416552e-06 9.5992238836e-07 1.7234772613e-06 9.0487889041e-07 1.0575244872e-06 9.1051926768e-07
          1.0053798937e-06 1.052358158e-06 9.6978852894e-07 8.5974040673e-07 1.6629941603e-06 8.8588637671e-07
          1.0593615895e-06 9.2269076083e-07 9.175067805e-07 9.460666271e-07 9.0730495909e-07 8.156618317e-07
          1.0445009403e-06 1.0591543014e-06 9.4441333779e-07 1.602887004e-06 9.1730106868e-07 1.0462390914e-06
          9.2756539404e-07 1.0171938357e-06 1.9570430588e-06 1.6116034658e-06 1.8232243555e-06 1.0618086332e-06
          1.7020490212e-06 9.4698655484e-07 1.7549625096e-06 8.9861288772e-07 1.6661307278e-06 1.6614041256e-06
          1.7592407596e-06 9.7127104525e-07 1.0054454512e-06 8.7256874775e-07 1.6843332622e-06 1.9347910748e-06
          8.5906176363e-07 1.6172686259e-06 1.6553022737e-06 1.5447275112e-06 1.6286232519e-06 9.139439141e-07
          1.7427010059e-06 1.726527354e-06 1.5396228104e-06 9.0290873493e-07 1.0019927698e-06 1.7096040837e-06
          1.0078104375e-06 1.001403322e-06 1.9023688382e-06 1.7957326489e-06 9.3763398382e-07 9.2333662904e-07
          1.5530923644e-06 9.6109709683e-07 1.6061841002e-06 8.2661151854e-07 8.1916041485e-07 1.055168504e-06
          1.060264208e-06 9.8684363929e-07 1.9365504241e-06 9.3600173587e-07 1.9330571099e-06 9.2112304964e-07
          1.6126171446e-06 9.9712643043e-07 1.0109403607e-06 1.6606042621e-06 1.0280139349e-06 1.0057182528e-06
          1.7031195795e-06 9.1552444259e-07 1.5433658606e-06 1.9411000806e-06 1.8652191078e-06 1.0293175684e-06
          1.8477401004e-06 1.7550734968e-06 1.7080971013e-06 1.7256961462e-06 8.6062241291e-07 8.434940366e-07
          1.7617811595e-06 9.2125443336e-07 1.8813590222e-06 1.0180280455e-06 1.004308908e-06 1.0104782095e-06
          1.6693822399e-06 1.7861293772e-06 9.4739882275e-07 8.9233085524e-07 1.9425535873e-06 1.8511244359e-06
          1.602912907e-06 1.9255059396e-06 1.9664692345e-06 1.0116586867e-06 1.8315360275e-06 1.6303473102e-06
          1.579699603e-06 9.1096858079e-07 9.3411084967e-07 9.0233015003e-07 9.2916412965e-07 8.215952688e-07
          1.66231584e-06 9.2623722886e-07 1.8092911e-06 1.5961278639e-06 9.1836984175e-07 1.9220292344e-06
          9.4897799892e-07 1.8891240391e-06 1.0085649364e-06 1.057709506e-06 9.770300862e-07 1.9365504384e-06
          1.9675934836e-06 1.6440072457e-06 1.6286232887e-06 1.6163162141e-06 1.7365859134e-06 1.8228277798e-06
          1.5945494845e-06 1.7260327282e-06 1.6394699081e-06 1.7084485362e-06 1.9618605522e-06 1.6486843346e-06
          1.7809411389e-06 1.7957326889e-06 1.6840379417e-06 1.5229239835e-06 1.566104389e-06 8.7477527209e-07
          8.64059706e-07 1.0044217316e-06 9.4861582562e-07 9.9585604582e-07 1.8033486214e-06 1.0289229287e-06
          9.3699410939e-07 9.2858137574e-07 8.6857745605e-07 1.0592358196e-06 1.5375107148e-06 1.94474086e-06
          1.8555944609e-06 1.6854733604e-06 1.7661682592e-06 1.6400739814e-06 8.9091761882e-07 1.6151247503e-06
          8.6705252341e-07 9.530809679e-07 8.9714311969e-07 9.589141204e-07 1.6507739352e-06 1.8116047316e-06
          1.037260517e-06 9.2505751435e-07 1.6947560773e-06 1.6089184169e-06 9.0332011487e-07 9.7312566877e-07
          1.9583404319e-06 1.6001245374e-06 1.0593718452e-06 9.1187626665e-07 9.3254692904e-07 1.7803079187e-06
          1.6998293686e-06 9.2774954861e-07 9.7775678533e-07 9.0432470373e-07 9.0574746602e-07 1.7231156618e-06
          9.0520033168e-07 8.5717616299e-07 1.0244641208e-06 1.6474919482e-06 8.8443472185e-07 1.5896754358e-06
          9.3209157378e-07 1.4971542781e-06 8.2942504094e-07 8.6176264052e-07 8.4980697618e-07 8.7473488722e-07
          8.6913834543e-07 1.0655250151e-06 1.8406660412e-06 8.9791966757e-07 1.8767428758e-06 1.9553591925e-06
          9.6160504515e-07 9.7199999232e-07 9.9081383875e-07 8.8855467816e-07 9.6505516281e-07 1.0009398014e-06
          1.9570430558e-06 8.4139055022e-07 1.5869227596e-06 1.6707111226e-06 1.6737472117e-06 1.741715049e-06
          1.5890263422e-06 1.0203767498e-06 1.5693020204e-06 9.439659464e-07 9.7056866456e-07 1.0260415657e-06
          1.9099594813e-06 9.2561556035e-07 1.0612941473e-06 9.3046689002e-07 9.4378469739e-07 1.680591917e-06
          9.7553627141e-07 9.6210970599e-07 9.1611496852e-07 1.0084866832e-06 1.5671658253e-06 9.4606766277e-07
          1.8728964993e-06 1.630815058e-06 9.3246285835e-07 9.0196214033e-07 1.7910601058e-06 9.9755738102e-07
          8.1349408254e-07 1.0082809686e-06 1.7279692149e-06 1.0539470341e-06 1.031088912e-06 1.0300997748e-06
          1.9674409381e-06 8.9956770878e-07 9.3780849678e-07 9.1761284546e-07 9.0653363612e-07 9.0093754733e-07
          8.2115200008e-07 8.6723639001e-07 9.0919649316e-07
        </DataArray>
      </PointData>
      <CellData>
      </CellData>
      <Points>
        <DataArray type="Float32" Name="Points" NumberOfComponents="3" format="ascii" RangeMin="9.7635858595e-06" RangeMax="0.00013196356937">
          1.919317765e-05 2.3481492462e-05 5.3819792356e-07 1.8757829821e-05 2.3194714231e-05 1.04194919e-06
          2.0351553758e-05 2.3731106921e-05 1.0728460893e-06 4.9557947932e-06 8.5739129645e-06 1.9139974938e-06
          1.2839348528e-05 1.7021688109e-05 1.7501497496e-06 2.0206407498e-05 2.2875316063e-05 1.7858901629e-06
          1.9281023924e-05 2.308394869e-05 1.8960120087e-06 4.0633171011e-05 1.5515577616e-05 2.2088065634e-06
          1.3375006347e-05 1.5538567823e-05 2.551319767e-06 4.9439522627e-06 7.6667147368e-06 3.4794295516e-06
          4.1230479837e-05 1.5214092855e-05 3.7604772842e-06 4.1564482672e-05 1.5726389393e-05 5.2234076975e-06
          3.1435683923e-05 8.1757070802e-06 5.4944002841e-06 1.7200000002e-05 5.7000002016e-06 6.1699997786e-06
          1.4822079493e-06 9.2804793894e-06 6.2848357629e-06 3.2127958548e-05 9.1339661594e-06 6.7971786848e-06
          2.0398936158e-06 1.0868552636e-05 6.9343200266e-06 2.5845774871e-05 1.6647931261e-05 6.5758426899e-06
          1.4600000213e-05 8.9300001491e-06 7.4399999903e-06 4.6127028327e-05 1.0850879335e-05 7.8640960055e-06
          2.5362436645e-05 1.6946987671e-05 8.1179559857e-06 4.6659155487e-05 1.2311202227e-05 8.031555808e-06
          2.0318100724e-05 2.3903585316e-05 1.9429182885e-06 2.0021831006e-05 2.3424398023e-05 5.000123906e-07
          1.3710221538e-05 3.8497411879e-05 9.1739144636e-07 1.4084585928e-05 3.8649846829e-05 2.4769160518e-06
          1.450689615e-05 4.0402093873e-05 2.2927704322e-06 2.9405919122e-05 4.0653358155e-05 3.4876968584e-06
          4.5419044909e-05 4.0787348553e-05 3.6567328152e-06 4.6306540753e-05 4.1014798626e-05 3.8928528738e-06
          3.9052301872e-05 3.9085829485e-05 4.9995214795e-06 4.5024844439e-05 4.039777923e-05 4.5708925427e-06
          4.6105764341e-05 4.1863262595e-05 4.5635615606e-06 3.1027480873e-05 4.8784349929e-05 4.8489591791e-06
          2.9393828299e-05 3.9727296098e-05 5.0856792768e-06 4.5038697863e-05 4.1088464059e-05 5.1816427913e-06
          4.5958684495e-05 4.1519582737e-05 5.4355882639e-06 3.9562000893e-05 3.7674573832e-05 5.7618699429e-06
          1.7219446818e-05 3.9830076275e-05 5.5217101362e-06 4.5613651309e-05 4.076031837e-05 5.848510682e-06
          1.7766697056e-05 4.1331899411e-05 5.6939293245e-06 4.6468858272e-06 3.2644093153e-05 5.8926407291e-06
          3.1736126402e-05 4.9765272706e-05 6.1825494413e-06 4.6366981223e-06 2.9522878322e-05 6.8848789851e-06
          4.7076223382e-06 3.2950087189e-05 6.7224814302e-06 4.8267888815e-06 3.3950931538e-05 6.6912389229e-06
          5.7788452068e-06 3.29724935e-05 6.9991483542e-06 6.0741285779e-06 3.3812477341e-05 7.3141327448e-06
          3.7285968574e-05 3.9496368117e-05 7.4130625762e-06 3.6547102354e-05 3.9906673919e-05 6.9292536864e-06
          6.1300506786e-06 2.9189828638e-05 7.9087631093e-06 4.4004036681e-06 3.2963664125e-05 7.7076647358e-06
          5.154433893e-06 3.35609584e-05 7.550434475e-06 3.7034471461e-05 4.058525883e-05 7.3054848144e-06
          4.9585210036e-06 3.2736188587e-05 8.4216635514e-06 3.8028880226e-05 3.9909096813e-05 8.1913422036e-06
          3.6786903365e-05 4.05231076e-05 8.1748530647e-06 3.5356762965e-05 4.0636685299e-05 9.0275580078e-06
          5.1177094065e-06 2.9692768294e-05 9.1725742095e-06 3.6838329834e-05 4.0394555981e-05 9.3648041002e-06
          3.7991565478e-05 4.0363254811e-05 9.1195179266e-06 4.5351349399e-05 4.1404688091e-05 4.3680174713e-06
          4.0283812268e-06 3.2240932342e-05 7.3749283729e-06 3.6230518162e-05 4.0632399759e-05 8.9386176114e-06
          4.4912608246e-06 3.1812422094e-05 6.0937841226e-06 3.712695252e-05 3.9710917918e-05 8.9830427896e-06
          3.5419921915e-05 6.9697933213e-05 1.709972139e-06 3.6554622056e-05 6.9504436397e-05 1.7776281993e-06
          3.6443732824e-05 7.0842266723e-05 1.8714545149e-06 3.5886980186e-05 7.2350143455e-05 1.4578490664e-06
          3.7993297155e-05 7.0531896199e-05 2.3318739295e-06 3.5828208638e-05 6.9733061537e-05 2.6334203085e-06
          3.685683987e-05 6.9499081292e-05 2.6833383799e-06 3.6571604141e-05 7.0414731454e-05 2.7247938306e-06
          3.7406809952e-06 5.7287314121e-05 3.1500471778e-06 3.5062719689e-05 7.0657784818e-05 3.1662175388e-06
          1.5963803889e-05 6.7336775828e-05 3.6483224903e-06 4.0197878661e-06 7.2779497714e-05 3.7657425764e-06
          3.5337230656e-05 7.196196384e-05 4.1576267904e-06 4.0130748857e-06 7.3524395702e-05 4.4192329369e-06
          4.0283371163e-06 5.6505759858e-05 4.8494725888e-06 4.9133341236e-06 7.3463350418e-05 4.6578416004e-06
          4.603317393e-06 5.8083678596e-05 5.030417924e-06 9.2221698651e-06 6.7021668656e-05 5.0814937822e-06
          1.5444422388e-05 6.7658133048e-05 5.3054327509e-06 5.5294922277e-06 7.2949107562e-05 5.1216993597e-06
          4.2195747483e-06 7.3008115578e-05 5.1981955949e-06 3.2070395264e-06 7.3570445238e-05 5.5654254538e-06
          1.0077315892e-05 5.4743697547e-05 5.5484151744e-06 2.3116723241e-05 6.551786646e-05 5.8561249716e-06
          4.0287000047e-06 7.3234892625e-05 6.8701292548e-06 9.2781292551e-06 5.3480711358e-05 6.2382532633e-06
          5.8414830164e-06 6.2771505327e-05 6.4181149355e-06 2.429570668e-05 6.350401236e-05 6.4939818003e-06
          4.9201867114e-06 7.0337708166e-05 6.2204821916e-06 4.5296742428e-06 7.2335802543e-05 5.8431860452e-06
          7.3950041042e-06 6.2161037931e-05 6.6561624408e-06 9.2596483228e-06 6.7012944783e-05 6.7495102485e-06
          9.759391105e-06 6.8718654802e-05 5.8040177464e-06 4.4004532356e-06 7.3910174251e-05 6.5311801336e-06
          2.8834689147e-05 7.3543240433e-05 6.6147676989e-06 2.298151594e-05 6.4236606704e-05 7.1440576903e-06
          2.8396030757e-05 7.3981900641e-05 7.3744286055e-06 2.9369070035e-05 7.3921539297e-05 7.3725409493e-06
          7.3239266385e-06 6.3476072683e-05 7.897229807e-06 5.3592498261e-06 7.067732804e-05 7.851731425e-06
          3.7181674998e-05 7.0301968663e-05 1.9951989998e-06 4.8686624723e-06 7.3107505159e-05 6.1933856159e-06
          3.474341429e-05 7.2198468843e-05 2.5127428671e-06 2.974898598e-05 7.3952360253e-05 6.3139004851e-06
          9.9480157587e-06 6.8805442424e-05 7.3558417171e-06 4.8240899559e-06 7.3603368946e-05 5.486945156e-06
          3.5217053664e-06 7.3500457802e-05 4.8016368055e-06 4.9055099225e-05 8.3688013547e-05 5.1954191349e-07
          4.8237689043e-05 8.4225401224e-05 8.1138051655e-07 4.9379290431e-05 8.4629617049e-05 5.5070779581e-07
          3.838453631e-05 8.4586463345e-05 1.3963388028e-06 4.9789054174e-05 8.5055915406e-05 1.2798401485e-06
          9.1416477517e-06 8.3825732872e-05 1.8013896579e-06 4.9171379942e-05 8.4491599409e-05 1.6741869331e-06
          5.2115674407e-06 7.7842509199e-05 2.1625901354e-06 4.9450318329e-05 8.523233555e-05 2.1810189992e-06
          4.9304744607e-05 8.4108294686e-05 2.5435053885e-06 3.9454869693e-05 8.4578248789e-05 2.821705948e-06
          6.7754790507e-06 8.6187290435e-05 2.5501572054e-06 7.6886317402e-06 8.6444510089e-05 2.8709380331e-06
          5.0878238653e-06 7.9031269706e-05 3.3141529912e-06 6.8910030677e-06 8.6518601165e-05 3.4433041947e-06
          4.3906777137e-05 7.6319214713e-05 3.558136541e-06 5.9908375079e-06 8.0599063949e-05 3.5220225527e-06
          8.5865849542e-06 8.4169172624e-05 3.5723433029e-06 7.0360888458e-06 8.7401662313e-05 3.7687011627e-06
          4.0051250835e-05 9.126549412e-05 3.8904381654e-06 3.8385893276e-05 9.19199083e-05 3.6352537336e-06
          4.2630155804e-05 7.712036313e-05 4.1090806917e-06 3.9119728171e-05 8.4644460003e-05 4.4695457291e-06
          8.2346896306e-06 8.6196974735e-05 4.4750759116e-06 7.6545065895e-06 8.7315791461e-05 4.4405992412e-06
          2.4974571716e-05 8.9325629233e-05 4.4324642658e-06 6.858775123e-06 8.7470769358e-05 4.872282716e-06
          4.5585838961e-05 7.7937846072e-05 5.3111339184e-06 8.5080309873e-06 8.6912812549e-05 5.1693982641e-06
          2.8760550776e-05 7.4894021964e-05 5.4880483731e-06 3.0123932447e-05 7.4758339906e-05 5.9318795138e-06
          4.772711327e-05 7.7317461546e-05 5.9021804191e-06 4.6200326324e-05 7.9624187492e-05 5.5045125009e-06
          9.096537724e-06 8.6272644694e-05 4.2221945478e-06 2.8797439882e-05 7.4901021435e-05 6.628614301e-06
          2.5444898711e-05 8.968943439e-05 6.1798741626e-06 1.1921310943e-05 7.6071628428e-05 6.9431721386e-06
          4.6927398216e-05 7.6053649536e-05 6.5924728005e-06 4.7661804274e-05 9.564262291e-05 6.5151298259e-06
          1.2493034774e-05 7.4488649261e-05 7.7982849689e-06 2.9513577829e-05 7.4827024946e-05 7.7180775406e-06
          4.8044068535e-05 7.767626812e-05 7.6174947026e-06 4.8337220505e-05 9.4618349976e-05 7.804015695e-06
          4.7091441957e-05 9.4533737865e-05 8.8148080977e-06 4.8373418394e-05 8.406752022e-05 1.7554705209e-06
          6.4197374741e-06 8.6738415121e-05 4.5762603804e-06 7.4587042036e-06 8.6502797785e-05 4.612677003e-06
          4.9937657423e-06 7.4310381024e-05 5.9643002714e-06 2.9088116207e-05 7.421252667e-05 6.2441399677e-06
          5.6798093283e-05 2.342912012e-05 1.9163762772e-06 5.0401715271e-05 1.3502869479e-05 2.3743721158e-06
          6.3428204157e-05 1.4952541278e-05 2.2934832486e-06 5.6017372117e-05 2.2195317797e-05 2.5902754714e-06
          5.0361748436e-05 1.289742886e-05 3.0294788758e-06 6.3986088207e-05 1.3407881852e-05 3.1278957522e-06
          5.1339164202e-05 1.3607635083e-05 3.5963128084e-06 5.8776007791e-05 5.379225513e-06 4.3293839553e-06
          5.1191418606e-05 1.2812504792e-05 4.2936421778e-06 5.021584002e-05 1.3004984794e-05 4.361207175e-06
          5.1442388212e-05 1.3821404536e-05 4.5232295633e-06 8.0120895291e-05 1.8887323677e-05 4.230696959e-06
          9.3606169685e-05 8.0927147792e-06 4.8542983677e-06 9.2972419225e-05 1.602233533e-05 4.7124681259e-06
          8.7190186605e-05 3.3877079204e-06 5.8804821492e-06 5.5002128647e-05 1.7050288079e-05 4.975831871e-06
          8.0408353824e-05 1.8106438802e-05 5.9288358898e-06 5.8232231822e-05 5.7156753428e-06 6.0643219513e-06
          9.3552269391e-05 6.4921437115e-06 6.0352422224e-06 7.1695314546e-05 1.2387474271e-05 6.261866929e-06
          7.0141795732e-05 1.2997941667e-05 6.0238198785e-06 9.3015369202e-05 1.6030307961e-05 6.3712764131e-06
          9.3595110229e-05 1.7741669581e-05 6.1952450778e-06 8.0982848885e-05 1.9683015125e-05 6.1096270656e-06
          5.5144300859e-05 1.7976588424e-05 6.8779359026e-06 8.7629246991e-05 3.7273266571e-06 7.5117313827e-06
          9.3637092505e-05 7.7977128967e-06 7.0285841502e-06 9.3707414635e-05 2.3518814487e-05 7.1678614404e-06
          5.3854506405e-05 1.6898071408e-05 6.0344659687e-06 5.1259299653e-05 1.3376881725e-05 2.4102109819e-06
          5.0179685786e-05 1.3557575585e-05 3.5860812204e-06 5.2755080105e-05 4.8819747462e-05 1.2319225107e-06
          5.3681844292e-05 4.8663925554e-05 1.328965368e-06 5.2612929721e-05 4.8133602832e-05 1.9326630536e-06
          5.7150427892e-05 3.8438090996e-05 2.3050865821e-06 5.3733743698e-05 4.8899899411e-05 2.4239861887e-06
          5.2425042668e-05 4.8851896281e-05 2.5204005851e-06 5.2607378166e-05 4.8064473958e-05 2.9554180401e-06
          5.3877341998e-05 4.8226342187e-05 3.5133664369e-06 5.3844421927e-05 4.9164584198e-05 3.4198071717e-06
          5.7887536968e-05 3.8964710257e-05 3.7031718421e-06 7.2800001362e-05 4.9700000091e-05 5.4199999795e-06
          8.7418338808e-05 4.9597936595e-05 5.6119747569e-06 9.2429450888e-05 2.4320805096e-05 7.719385394e-06
          8.8331042207e-05 2.5134109819e-05 7.7767690527e-06 8.8851084001e-05 2.6614980015e-05 8.3824097601e-06
          5.2490100643e-05 4.8570655053e-05 3.6864955746e-06 5.77914725e-05 3.8062393287e-05 4.9939203564e-06
          5.3469837439e-05 4.7974575864e-05 2.8002102681e-06 7.4016003055e-05 7.3081413575e-05 4.7041774565e-07
          7.4780371506e-05 7.3418195825e-05 7.8915934409e-07 7.3562267062e-05 7.3594768764e-05 1.0873625342e-06
          5.2129045798e-05 5.3325635236e-05 2.3933782813e-06 9.2443100584e-05 5.3505977121e-05 1.9583603716e-06
          7.3993462138e-05 7.3015733506e-05 1.7284791056e-06 7.3962939496e-05 7.3754905316e-05 2.3291393063e-06
          5.3107753047e-05 5.4075728258e-05 3.490196832e-06 9.3120492238e-05 5.4443626141e-05 3.2331236071e-06
          7.9382611148e-05 7.0388974564e-05 3.0496985346e-06 7.9588251538e-05 6.9785986852e-05 3.7157608404e-06
          7.4399998994e-05 7.1700000262e-05 3.7800000428e-06 7.6572279795e-05 5.6896205933e-05 4.155255283e-06
          7.472155994e-05 5.7459143136e-05 4.2834026317e-06 7.9519079009e-05 6.9925568823e-05 4.6760706027e-06
          7.9374571214e-05 7.1196394856e-05 4.3929017011e-06 5.2780604165e-05 5.2880717703e-05 4.6844770623e-06
          7.6936419646e-05 5.5681197409e-05 5.216415957e-06 7.4912917626e-05 5.7633613324e-05 5.2215914366e-06
          7.636713417e-05 5.7558117987e-05 5.2377472457e-06 7.5649397331e-05 5.8061716118e-05 4.9346085689e-06
          7.908356929e-05 7.0874222729e-05 5.1823035392e-06 8.7963759142e-05 5.1151087973e-05 6.2471763158e-06
          7.4911789852e-05 5.7333119912e-05 6.5996746343e-06 7.6477335824e-05 5.7759079937e-05 6.4058694988e-06
          7.724819443e-05 5.7241999457e-05 6.1767382249e-06 8.0140169302e-05 6.6651402449e-05 6.4037367338e-06
          7.6198899478e-05 5.8413912484e-05 6.8918147917e-06 7.9668054241e-05 6.6943510319e-05 7.9100309449e-06
          7.8683093307e-05 6.9728441304e-05 4.4736775635e-06 5.1860024541e-05 5.3115552873e-05 8.4520547716e-07
          7.9153076513e-05 7.050253771e-05 3.9234269025e-06 7.8700941231e-05 7.0163318014e-05 5.4911470215e-06
          7.5395422755e-05 5.730869816e-05 5.8866289692e-06 7.5450639997e-05 5.7960856793e-05 6.8159934017e-06
          7.6020369306e-05 5.7096149249e-05 6.1444779931e-06 5.0122736866e-05 8.4146384324e-05 1.032876412e-06
          7.4321505963e-05 8.6271080363e-05 1.3934686649e-06 7.4373019743e-05 7.4121788202e-05 1.4870416862e-06
          5.0700000429e-05 7.5800002378e-05 1.5699999949e-06 7.4892821431e-05 8.4689236246e-05 2.24796986e-06
          9.7396594356e-05 8.7322696345e-05 2.0197367121e-06 9.8258373328e-05 8.7747110229e-05 1.9839496872e-06
          9.69530156e-05 8.7043525127e-05 2.9070452001e-06 9.7742871731e-05 8.8096814579e-05 2.6465559131e-06
          9.747484728e-05 8.8904991571e-05 2.9900272693e-06 9.7052827186e-05 8.7954860646e-05 3.2546195143e-06
          8.2209917309e-05 8.9103479695e-05 3.779086228e-06 9.7374293546e-05 8.8007618615e-05 4.1039866119e-06
          7.1077913162e-05 9.4283750514e-05 4.4293542487e-06 7.2559239925e-05 9.3701652077e-05 4.6563386604e-06
          7.0544010669e-05 8.8270040578e-05 5.2790815062e-06 8.3496066509e-05 8.8879904069e-05 5.0770031521e-06
          7.1114256571e-05 8.9800334536e-05 5.1735378293e-06 8.7234402599e-05 7.8797456808e-05 5.7481934164e-06
          7.5292402471e-05 9.3951108283e-05 5.6639032664e-06 8.6374209786e-05 7.7143544331e-05 6.1281807575e-06
          8.688649541e-05 7.7911528933e-05 5.9822327785e-06 8.5424348072e-05 7.8077500802e-05 6.0396046138e-06
          7.1560338256e-05 9.113260603e-05 6.2032213464e-06 8.5547566414e-05 7.7207594586e-05 6.5345438998e-06
          8.6494968855e-05 7.7776887338e-05 6.8891581577e-06 8.6250147433e-05 7.8724093328e-05 6.8648369052e-06
          8.7116444774e-05 7.8987672168e-05 6.7706009759e-06 8.2641097833e-05 8.9271517936e-05 6.5079707383e-06
          5.4214873671e-05 9.4753217127e-05 6.5772660491e-06 5.4769694543e-05 9.549594688e-05 6.740662684e-06
          5.2748866437e-05 9.5583825896e-05 6.7516702984e-06 5.3671483329e-05 9.5542913186e-05 6.5049071054e-06
          9.133315325e-05 8.3345250459e-05 7.0660503297e-06 9.1950219939e-05 8.4898376372e-05 7.2042630563e-06
          6.4106185164e-05 8.9874054538e-05 7.3519663601e-06 7.5228366768e-05 9.3829032267e-05 7.2439720498e-06
          5.3736945119e-05 9.6375777503e-05 7.4047520684e-06 9.3523645774e-05 8.4423430962e-05 7.4936888268e-06
          7.6139098383e-05 9.5109811809e-05 7.9345818449e-06 5.3563599067e-05 9.5450122899e-05 7.5942512012e-06
          5.463603884e-05 9.5750452601e-05 8.0816125774e-06 9.1802576208e-05 8.490664186e-05 8.154545867e-06
          9.1582624009e-05 8.3549057308e-05 8.6842255769e-06 9.2660760856e-05 8.4414983576e-05 8.6338632173e-06
          9.3689035566e-05 8.4439881903e-05 8.4330276877e-06 9.249291179e-05 8.5205479991e-05 9.2680929811e-06
          6.4093575929e-05 8.8908003818e-05 9.0234680101e-06 9.3554939667e-05 8.484585851e-05 9.2826203399e-06
          9.2686990683e-05 8.4654348029e-05 7.6893002188e-06 7.4566974945e-05 7.4560193752e-05 2.2184572117e-06
          7.5089228631e-05 7.4242918345e-05 9.735367712e-07 9.7743381048e-05 8.7232605438e-05 4.180174983e-06
          8.5409919848e-05 7.7737538959e-05 7.173508493e-06 9.2979462352e-05 8.4272011009e-05 9.5754930953e-06
          5.4617838032e-05 9.5823430456e-05 7.2402003752e-06
        </DataArray>
      </Points>
      <Cells>
        <DataArray type="Int64" Name="connectivity" format="ascii" RangeMin="0" RangeMax="302">
          0 1 2 3 4 5
          6 7 8 9 10 11
          12 13 14 15 16 17
          18 19 20 21 22 23
          24 25 26 27 28 29
          30 31 32 33 34 35
          36 37 38 39 40 41
          42 43 44 45 46 47
          48 49 50 51 52 53
          54 55 56 57 58 59
          60 61 62 63 64 65
          66 67 68 69 70 71
          72 73 74 75 76 77
          78 79 80 81 82 83
          84 85 86 87 88 89
          90 91 92 93 94 95
          96 97 98 99 100 101
          102 103 104 105 106 107
          108 109 110 111 112 113
          114 115 116 117 118 119
          120 121 122 123 124 125
          126 127 128 129 130 131
          132 133 134 135 136 137
          138 139 140 141 142 143
          144 145 146 147 148 149
          150 151 152 153 154 155
          156 157 158 159 160 161
          162 163 164 165 166 167
          168 169 170 171 172 173
          174 175 176 177 178 179
          180 181 182 183 184 185
          186 187 188 189 190 191
          192 193 194 195 196 197
          198 199 200 201 202 203
          204 205 206 207 208 209
          210 211 212 213 214 215
          216 217 218 219 220 221
          222 223 224 225 226 227
          228 229 230 231 232 233
          234 235 236 237 238 239
          240 241 242 243 244 245
          246 247 248 249 250 251
          252 253 254 255 256 257
          258 259 260 261 262 263
          264 265 266 267 268 269
          270 271 272 273 274 275
          276 277 278 279 280 281
          282 283 284 285 286 287
          288 289 290 291 292 293
          294 295 296 297 298 299
          300 301 302
        </DataArray>
        <DataArray type="Int64" Name="offsets" format="ascii" RangeMin="1" RangeMax="303">
          1 2 3 4 5 6
          7 8 9 10 11 12
          13 14 15 16 17 18
          19 20 21 22 23 24
          25 26 27 28 29 30
          31 32 33 34 35 36
          37 38 39 40 41 42
          43 44 45 46 47 48
          49 50 51 52 53 54
          55 56 57 58 59 60
          61 62 63 64 65 66
          67 68 69 70 71 72
          73 74 75 76 77 78
          79 80 81 82 83 84
          85 86 87 88 89 90
          91 92 93 94 95 96
          97 98 99 100 101 102
          103 104 105 106 107 108
          109 110 111 112 113 114
          115 116 117 118 119 120
          121 122 123 124 125 126
          127 128 129 130 131 132
          133 134 135 136 137 138
          139 140 141 142 143 144
          145 146 147 148 149 150
          151 152 153 154 155 156
          157 158 159 160 161 162
          163 164 165 166 167 168
          169 170 171 172 173 174
          175 176 177 178 179 180
          181 182 183 184 185 186
          187 188 189 190 191 192
          193 194 195 196 197 198
          199 200 201 202 203 204
          205 206 207 208 209 210
          211 212 213 214 215 216
          217 218 219 220 221 222
          223 224 225 226 227 228
          229 230 231 232 233 234
          235 236 237 238 239 240
          241 242 243 244 245 246
          247 248 249 250 251 252
          253 254 255 256 257 258
          259 260 261 262 263 264
          265 266 267 268 269 270
          271 272 273 274 275 276
          277 278 279 280 281 282
          283 284 285 286 287 288
          289 290 291 292 293 294
          295 296 297 298 299 300
          301 302 303
        </DataArray>
        <DataArray type="UInt8" Name="types" format="ascii" RangeMin="1" RangeMax="1">
          1 1 1 1 1 1
          1 1 1 1 1 1
          1 1 1 1 1 1
          1 1 1 1 1 1
          1 1 1 1 1 1
          1 1 1 1 1 1
          1 1 1 1 1 1
          1 1 1 1 1 1
          1 1 1 1 1 1
          1 1 1 1 1 1
          1 1 1 1 1 1
          1 1 1 1 1 1
          1 1 1 1 1 1
          1 1 1 1 1 1
          1 1 1 1 1 1
          1 1 1 1 1 1