<?xml version="1.0"?>
<VTKFile type="UnstructuredGrid" version="0.1" byte_order="LittleEndian" header_type="UInt32" compressor="vtkZLibDataCompressor">
  <UnstructuredGrid>
    <Piece NumberOfPoints="1537" NumberOfCells="1537">
      <PointData>
        <DataArray type="Int32" Name="id" format="ascii" RangeMin="1" RangeMax="1537">
          792 477 298 1166 133 1051
          791 624 668 19 991 887
          623 206 938 793 529 308
          1167 936 605 50 59 134
          625 385 1380 1114 531 244
          937 1434 626 1047 190 766
          666 343 1168 1050 1113 989
          406 589 669 745 123 845
          241 484 174 990 794 318
          550 49 457 888 97 495
          846 42 324 15 44 22
          131 118 474 3 1048 264
          196 1295 1296 1297 1298 1299
          1300 1378 1379 1430 1432 1433
          1460 530 1488 1490 1002 1179
          203 75 459 847 844 886
          40 276 460 992 1053 592
          748 1052 93 369 593 430
          993 386 994 842 1170 245
          408 1115 627 1226 1 939
          594 671 749 461 78 889
          266 795 407 1054 890 150
          117 628 1055 532 175 1057
          672 54 362 629 497 797
          675 892 711 24 475 256
          798 796 370 670 891 1056
          595 109 286 533 996 940
          225 7 1118 257 1234 389
          673 387 215 995 674 363
          1172 388 1058 561 207 1119
          1109 106 676 1059 1227 800
          1116 1171 124 119 799 634
          677 433 434 597 371 141
          1173 62 534 1229 1117 562
          1122 1120 895 633 176 432
          1121 501 998 893 941 999
          246 848 373 849 329 596
          498 894 535 1000 258 435
          1174 630 20 84 750 997
          267 1060 1175 713 499 805
          804 500 712 372 1228 802
          310 803 632 1062 1001 1177
          898 1176 801 154 1235 502
          1125 208 598 850 806 478
          1061 901 504 1123 631 1124
          436 751 198 678 220 309
          896 536 897 752 374 188
          899 277 161 1126 462 807
          166 1230 344 808 503 942
          1233 1231 61 390 900 1063
          299 1178 679 137 1232 311
          680 1301 1302 1303 1304 1305
          1306 1307 1308 1309 1310 1311
          1312 1313 1372 1381 1382 1383
          1384 1385 1386 1387 1388 1389
          1390 1391 1392 1393 1169 1431
          1435 1436 1437 1438 1439 1440
          1441 1442 1484 1492 1493 1494
          1495 1496 1497 1498 1499 1489
          1491 313 1245 507 943 1180
          851 809 209 121 635 636
          753 1003 1247 177 391 268
          1181 946 32 505 599 312
          945 944 1236 682 51 754
          537 479 506 1005 411 563
          1248 1065 1004 811 1064 681
          1066 77 1127 947 810 1006
          601 275 538 813 1069 325
          746 755 226 1067 330 812
          85 409 948 1182 600 463
          60 148 314 1237 508 235
          714 105 540 1238 410 315
          1068 1239 756 186 300 852
          539 81 167 1110 1070 1007
          221 950 853 345 854 541
          437 949 547 151 92 1246
          565 67 375 903 907 227
          904 18 1165 1224 57 759
          438 542 902 1240 412 1071
          602 509 824 569 192 160
          216 129 145 135 1072 637
          1129 1128 856 814 1074 364
          82 683 228 1241 905 716
          718 1073 715 855 14 26
          283 883 1244 717 346 951
          464 113 857 480 952 393
          89 1243 288 269 1008 764
          906 1190 458 348 543 12
          690 1314 1315 1316 1317 1318
          1319 1502 1321 1322 1323 1324
          1373 1394 1395 1396 1397 1398
          1399 1242 1401 1404 1443 1444
          1445 1446 1447 1448 1449 347
          1485 1500 1501 859 908 544
          1009 909 566 511 111 37
          761 1130 317 229 719 316
          210 953 510 860 911 858
          1077 546 247 34 910 816
          638 366 1076 1075 413 222
          1010 545 90 270 1457 640
          481 242 365 862 567 513
          1184 1513 912 955 1250 956
          367 350 512 1260 168 439
          1185 641 351 603 762 79
          818 1013 392 1186 187 1249
          199 101 957 817 1079 236
          1011 643 604 331 1251 1012
          1080 1261 514 157 515 2
          126 259 1082 217 142 69
          1187 1402 1014 349 649 278
          332 568 1112 564 230 863
          1083 35 46 560 642 289
          864 394 684 644 1131 271
          958 1252 959 1081 115 1111
          622 155 757 237 149 758
          517 686 822 496 934 86
          440 819 685 1188 1253 960
          1259 483 820 414 287 1085
          72 1133 416 821 482 720
          415 1132 200 721 1254 1084
          1256 182 763 1191 1015 914
          765 691 913 352 1262 961
          39 1255 441 865 1016 645
          1189 136 333 13 384 442
          301 353 1257 687 647 516
          590 48 120 1263 688 23
          158 1405 1258 181 465 204
          646 189 1086 1135 866 211
          549 689 1017 96 341 30
          571 648 1137 99 1136 95
          548 823 962 570 710 1456
          1458 354 304 1325 1326 1327
          1328 1329 1330 1331 1332 1333
          1334 1335 760 1374 1400 1403
          1450 1451 1452 1453 1454 1455
          1134 1486 1503 1504 1505 1506
          1507 1508 1509 1510 1511 1512
          1320 279 1018 1265 1264 1192
          127 867 789 43 723 418
          466 572 692 1138 56 417
          110 218 355 1139 395 405
          73 476 38 573 1461 915
          722 1193 1140 868 767 6
          1019 1020 650 280 33 825
          869 574 223 575 1267 965
          248 179 47 368 1266 963
          964 41 146 747 305 159
          377 87 91 17 173 88
          265 935 169 116 306 58
          197 243 102 884 1294 1336
          1337 1338 1375 1406 1407 1408
          1409 1459 485 1487 1514 518
          107 1194 606 724 396 238
          916 11 1141 870 357 1087
          693 486 1021 1142 918 607
          290 917 1143 1195 1088 871
          576 1196 966 334 1144 419
          1145 1410 843 1022 1089 162
          1023 769 919 1090 420 487
          694 768 191 249 651 608
          872 103 726 138 826 827
          1268 212 1091 770 489 272
          551 771 467 772 319 45
          284 130 1049 10 36 152
          1339 1340 1341 1342 1462 1463
          1464 1465 1466 1470 1515 1516
          1517 1525 185 920 742 1281
          285 1024 398 1093 695 725
          519 1279 250 443 652 1197
          224 356 790 696 1025 577
          397 1094 609 1269 25 1026
          444 828 967 1198 55 612
          873 335 921 968 610 163
          1270 488 80 147 874 468
          1271 260 611 922 74 697
          988 193 727 923 1096 1146
          378 1027 1028 1147 1148 5
          552 422 1280 1272 578 1095
          423 1029 730 445 1199 291
          969 183 1149 326 320 4
          379 1097 164 108 654 1151
          1203 261 1200 424 1273 273
          653 490 446 184 1201 591
          302 970 520 613 579 773
          132 829 971 700 831 728
          140 614 972 1030 1274 777
          1150 830 231 1275 832 775
          774 1152 342 9 293 924
          336 1153 448 213 729 76
          778 52 447 698 1276 731
          491 1204 1277 294 779 470
          292 1278 699 521 925 776
          973 833 139 1202 195 492
          1205 469 780 1343 1344 1345
          1346 1347 1348 1349 1350 1376
          1411 1412 1413 1414 1415 1416
          66 1467 1468 1469 1473 1471
          1472 1518 1519 1520 1521 1522
          1523 1524 1092 1206 449 781
          743 1209 701 1098 450 21
          1371 376 104 1183 1099 251
          734 125 784 709 875 1154
          471 64 1207 429 1031 65
          1283 1282 783 782 1208 733
          29 639 122 656 974 581
          68 281 1284 527 1210 321
          580 667 399 876 702 262
          736 170 239 421 327 156
          975 1211 1212 553 554 1155
          1100 380 1287 657 400 735
          282 451 1285 381 1286 926
          737 877 358 328 658 1032
          1288 703 834 232 452 927
          472 1289 295 878 1213 1225
          28 219 523 582 1033 979
          976 980 738 522 977 8
          929 615 785 1216 978 338
          661 555 583 1214 178 94
          205 705 659 401 1215 1217
          1101 337 382 63 1037 83
          53 255 1038 556 836 253
          618 1036 1290 704 1039 835
          144 114 928 1034 402 786
          454 404 1157 1158 383 1102
          453 1035 359 1103 983 665
          981 660 425 201 584 234
          837 263 617 1291 1156 194
          274 930 1292 663 839 664
          153 31 431 879 252 585
          982 70 1219 787 403 455
          233 1161 1040 931 473 1041
          1218 426 165 172 706 662
          741 1293 708 1222 27 360
          1104 619 1159 171 707 1162
          427 616 296 558 739 984
          1044 240 214 1106 71 428
          361 528 557 100 1105 586
          740 303 1220 788 1160 838
          744 840 881 1223 112 1221
          525 588 98 985 180 880
          885 128 1042 16 493 621
          339 143 932 323 1043 1107
          732 933 1045 1046 254 559
          322 620 882 841 524 340
          987 1163 526 307 587 986
          1108 297 494 202 456 1164
          815 655 1351 1352 1353 1354
          1355 1356 1357 1358 1359 1360
          1361 1362 1363 1364 1365 1366
          1367 1368 1369 1370 1377 1417
          1418 1419 1420 1421 1422 1423
          1424 1425 1426 1427 1428 1429
          1078 1474 1475 1476 1477 1478
          1479 1480 1481 1482 1483 861
          1526 1527 1528 1529 1530 1531
          1532 1533 1534 1535 1536 1537
          954
        </DataArray>
        <DataArray type="Int32" Name="type" format="ascii" RangeMin="1" RangeMax="2">
          2 2 2 2 2 2
          2 2 2 1 2 2
          2 2 2 2 2 2
          2 2 2 1 1 1
          2 2 2 2 2 2
          2 2 2 1 2 2
          1 2 2 2 2 2
          2 1 2 1 1 2
          1 2 2 2 2 2
          2 1 1 2 1 1
          2 1 1 1 1 1
          1 1 1 1 1 1
          1 2 2 2 2 2
          2 2 2 1 2 2
          2 2 2 2 2 2
          1 2 2 2 2 2
          1 2 2 2 2 2
          2 2 1 2 2 1
          2 2 2 1 2 2
          2 2 2 2 1 2
          2 2 2 2 2 2
          2 2 2 2 2 1
          1 2 2 2 2 2
          2 1 1 2 2 2
          2 2 2 1 1 2
          2 2 2 2 2 2
          2 2 2 2 2 2
          2 1 2 2 2 2
          2 2 1 2 2 1
          2 2 2 2 2 2
          1 2 2 2 2 2
          2 2 2 1 2 2
          2 2 2 2 2 2
          2 2 2 2 2 2
          2 2 2 2 2 2
          2 2 2 2 2 2
          2 2 2 2 2 2
          2 2 2 2 2 2
          2 2 1 1 2 2
          2 2 2 2 2 2
          2 2 2 2 2 2
          2 2 2 2 2 2
          2 2 2 2 2 2
          2 2 2 2 2 2
          2 2 2 2 2 2
          2 2 2 2 2 2
          2 2 2 2 2 2
          2 2 2 2 2 2
          1 2 2 2 2 2
          2 2 2 2 2 2
          2 2 2 2 2 2
          2 2 2 2 2 2
          2 2 2 2 2 2
          2 2 1 2 2 2
          2 2 2 2 2 2
          2 2 2 2 2 1
          2 2 2 2 2 2
          2 2 1 2 2 2
          2 2 2 2 2 2
          2 2 2 2 2 2
          2 2 2 2 2 2
          2 2 2 2 2 2
          2 2 1 2 2 2
          2 2 2 2 1 2
          2 2 2 2 2 2
          2 2 2 2 2 2
          2 2 2 2 2 2
          2 1 2 2 2 1
          1 2 2 2 2 2
          1 2 2 2 2 2
          1 2 2 2 2 2
          2 2 2 2 2 2
          2 2 2 1 2 2
          2 1 1 1 2 2
          2 2 2 2 2 2
          2 2 2 1 1 2
          2 2 2 2 2 2
          2 1 1 1 1 2
          2 2 2 2 2 2
          2 2 2 2 1 1
          1 1 1 2 2 2
          2 2 2 2 2 1
          1 2 2 2 2 2
          2 2 2 2 1 1
          1 1 2 2 2 2
          2 2 2 2 2 2
          1 2 2 2 2 2
          2 2 1 2 2 1
          2 2 2 2 2 2
          2 2 2 2 2 2
          1 2 2 2 2 2
          2 2 2 2 2 2
          2 2 2 2 2 2
          1 2 2 2 2 2
          2 2 2 2 2 1
          2 2 2 2 2 2
          2 2 2 2 2 2
          2 2 2 1 2 2
          2 1 2 2 2 2
          2 2 1 2 2 2
          2 1 1 2 2 2
          2 2 2 2 2 2
          1 2 2 2 1 2
          2 2 2 2 2 2
          2 2 2 2 1 2
          2 1 2 2 2 2
          2 2 2 2 2 2
          2 2 2 2 2 1
          1 2 2 1 2 2
          2 2 2 2 2 2
          2 2 1 2 2 2
          2 1 1 1 2 2
          2 2 2 2 2 2
          2 2 2 2 1 1
          1 2 2 2 2 2
          2 2 2 1 1 1
          2 2 2 2 2 2
          2 2 2 2 2 2
          2 2 2 2 2 2
          2 2 2 2 2 2
          2 2 2 2 2 2
          2 2 2 2 2 2
          1 2 2 2 2 2
          2 2 2 1 1 2
          2 2 2 2 2 2
          1 1 1 2 2 1
          2 2 2 2 2 1
          2 2 2 2 2 2
          2 2 2 1 1 1
          2 2 2 1 2 1
          2 2 2 2 1 2
          2 2 1 2 2 2
          2 2 2 2 2 2
          2 2 2 1 2 2
          2 2 2 2 2 2
          2 1 2 2 2 2
          2 2 2 2 2 2
          2 2 2 2 2 2
          2 2 1 1 2 2
          2 2 2 2 1 2
          1 1 2 2 2 1
          2 1 1 2 2 2
          2 2 2 2 2 1
          2 2 2 2 1 2
          2 2 2 2 2 2
          2 1 1 1 2 2
          2 1 1 1 1 2
          2 1 1 1 1 1
          1 1 1 1 1 1
          1 1 1 1 1 2
          2 2 1 2 2 2
          2 2 2 1 2 2
          2 2 2 2 2 2
          2 1 2 2 2 2
          2 2 2 2 2 2
          2 2 2 2 2 2
          2 2 2 2 2 2
          2 2 1 2 2 2
          2 2 2 2 2 2
          2 2 2 2 2 2
          2 1 2 2 2 2
          2 2 2 2 2 2
          2 2 2 2 2 1
          1 1 1 1 1 1
          2 2 2 2 2 2
          2 2 2 2 2 2
          2 2 2 2 2 2
          1 2 2 2 2 2
          2 2 2 2 2 2
          1 2 1 2 2 2
          2 2 2 2 1 2
          2 2 2 2 1 2
          2 2 2 2 2 2
          2 2 1 1 2 2
          2 2 2 2 2 2
          1 1 2 2 2 2
          2 2 2 2 2 1
          2 2 2 2 2 2
          2 2 2 2 2 2
          2 2 2 1 2 1
          2 2 2 2 2 2
          2 2 2 2 2 2
          2 2 2 2 2 1
          2 2 2 2 2 2
          2 2 2 2 2 2
          1 2 2 2 2 2
          2 2 2 2 2 2
          2 2 1 1 2 2
          2 2 2 2 2 2
          2 1 2 2 2 2
          2 2 2 2 2 2
          2 2 2 2 2 2
          2 2 2 2 2 2
          2 2 2 2 2 2
          2 2 2 2 2 1
          2 2 2 2 2 2
          2 2 2 2 2 2
          2 2 2 2 2 2
          2 2 2 2 2 2
          2 2 2 2 2 1
          2 2 1 2 2 2
          2 2 2 2 2 2
          2 2 2 2 2 2
          2 2 2 2 2 2
          1 2 2 2 2 2
          2 2 2 1 2 2
          2 1 2 2 2 2
          2 2 2 2 1 2
          2 2 2 2 2 2
          2 2 2 2 2 2
          2 2 2 2 2 2
          2 2 2 1 2 2
          2 2 2 2 2 2
          2 2 2 2 2 1
          1 1 2 2 2 2
          2 2 2 2 2 1
          2 2 2 2 2 2
          2 2 2 2 2 1
          1 2 2 2 2 2
          2 2 2 2 2 1
          1 1 2 2 2 2
          2 2 2 2 2 2
          2 2 2 2 2 2
          2 2 2 2 2 2
          2 2 2 2 2 2
          2 2 2 2 2 2
          2 2 2 2 2 1
          2 2 2 2 2 2
          1 1 1 2 2 2
          2 2 2 2 2 2
          2 2 2 2 2 2
          2 2 2 2 2 2
          2 2 2 2 1 2
          2 2 2 2 2 2
          2 2 2 2 2 2
          2 2 2 2 2 2
          2 1 2 1 2 2
          2 2 2 2 2 2
          2 2 2 2 2 2
          2 2 1 2 2 2
          1 2 2 1 2 2
          2 2 2 2 2 2
          2 2 2 2 2 2
          2 2 2 2 2 2
          2 2 2 1 2 2
          2 2 2 2 2 2
          2 2 2 2 2 2
          2 2 2 2 2 2
          2 2 2 2 2 2
          2 2 2 2 1 2
          2 2 2 2 2 2
          2 2 2 2 2 2
          2 2 2 2 2 2
          2 2 2 2 2 2
          2 2 2 2 2 2
          2 2 2 2 2 2
          2
        </DataArray>
        <DataArray type="Float64" Name="diameter" format="ascii" RangeMin="7.770443659e-07" RangeMax="1.9671401027e-06">
          1.0342753241e-06 1.0540335798e-06 9.3469243418e-07 8.7453562711e-07 9.525438238e-07 9.0096299291e-07
          9.377397163e-07 8.7458839531e-07 9.7140589431e-07 1.6047569297e-06 9.7236859323e-07 8.3617851181e-07
          9.1035948667e-07 8.6667121076e-07 1.0166740354e-06 8.8409889878e-07 9.0420184335e-07 8.264818439e-07
          9.6539468494e-07 8.4274057263e-07 1.022083766e-06 1.6342652076e-06 1.7074875665e-06 1.5606025531e-06
          9.715054783e-07 9.9532388436e-07 8.4410695138e-07 9.3791291987e-07 9.7194649162e-07 8.2867563434e-07
          9.5685979238e-07 8.3564148758e-07 9.4826922672e-07 1.6359490379e-06 8.8088915342e-07 9.4747906968e-07
          1.6544434358e-06 1.0089388795e-06 8.7184729073e-07 9.383369146e-07 9.2946954025e-07 1.0069752173e-06
          8.7752879316e-07 1.6119344657e-06 9.4539390272e-07 1.7049181059e-06 1.7839843635e-06 9.0917975614e-07
          1.7582410061e-06 1.0228397195e-06 9.6122755878e-07 9.5563580702e-07 8.618012288e-07 9.0168587739e-07
          9.0073731041e-07 1.7577266574e-06 1.7079729909e-06 9.8466615572e-07 1.9386502394e-06 1.6877397353e-06
          9.8967461484e-07 1.840251114e-06 1.7479600898e-06 1.6214580449e-06 1.9282609137e-06 1.6844005289e-06
          1.928461691e-06 1.7749216203e-06 1.7789315587e-06 1.8790151604e-06 1.6139551019e-06 1.7839041706e-06
          1.8605912197e-06 8.5104136604e-07 8.825364193e-07 8.7815360377e-07 8.4776576344e-07 9.2765202745e-07
          8.7027305706e-07 8.8931264048e-07 8.2633231892e-07 1.5839515485e-06 8.8801834918e-07 8.4567825507e-07
          8.4238223407e-07 9.6121349977e-07 8.5130608362e-07 8.5032679805e-07 1.0124589956e-06 9.1666623286e-07
          1.7892901147e-06 1.0270669676e-06 1.0440242671e-06 8.8676382758e-07 8.7797896435e-07 1.0067891155e-06
          1.7018802838e-06 9.0064829236e-07 9.9360404535e-07 9.5909035316e-07 9.7818231516e-07 1.011350097e-06
          9.0473946162e-07 1.0143244263e-06 1.5695028326e-06 9.3366313104e-07 1.0106238806e-06 1.7973923171e-06
          9.3855130803e-07 1.0098310656e-06 9.4402790103e-07 1.5618750912e-06 9.1461661193e-07 9.4354455886e-07
          1.0346200438e-06 9.7050234326e-07 9.9707738434e-07 8.52080954e-07 1.728581918e-06 9.7031138829e-07
          9.2284690646e-07 8.5931486804e-07 9.0052376879e-07 1.0064285108e-06 8.9055506354e-07 1.0230879381e-06
          1.0065502218e-06 8.7175458628e-07 9.087123881e-07 9.559803258e-07 8.9237936063e-07 1.9085766494e-06
          1.7671721863e-06 8.7924958846e-07 1.0241199711e-06 1.038915938e-06 9.4210435213e-07 1.0017365042e-06
          8.8103632295e-07 1.8201372238e-06 1.728854939e-06 9.6120460516e-07 9.8871280083e-07 8.9516123095e-07
          9.2480589976e-07 8.7583157466e-07 8.9064942944e-07 1.6342123639e-06 1.6968091797e-06 8.9514581847e-07
          8.5029607918e-07 8.2971693439e-07 9.9862137699e-07 8.9696670543e-07 9.8839463007e-07 9.6973193561e-07
          8.8524018874e-07 9.0523936108e-07 8.7595740543e-07 1.0180536639e-06 9.1718284305e-07 9.3529942744e-07
          8.8666554257e-07 1.9301447363e-06 9.3534731874e-07 9.9072639569e-07 9.4008673334e-07 8.2868346509e-07
          9.598182694e-07 9.2136304307e-07 1.8324456772e-06 9.8344759134e-07 9.1225795912e-07 1.7405477482e-06
          9.7657957599e-07 8.7954864558e-07 9.8421726583e-07 1.0324256648e-06 1.0064419327e-06 9.9778031028e-07
          1.5834445847e-06 9.52840373e-07 8.852055793e-07 1.0079696983e-06 8.9478586007e-07 8.857567878e-07
          8.9558027998e-07 9.0645406812e-07 9.6820714333e-07 1.5616800014e-06 1.0182520757e-06 1.0293956877e-06
          9.6587646561e-07 8.3919723776e-07 8.8936868741e-07 1.0465954348e-06 8.675799391e-07 9.7921952269e-07
          9.5631732861e-07 8.7342637729e-07 1.0514256017e-06 9.2878004875e-07 9.6933124624e-07 1.0046432722e-06
          9.4757500883e-07 1.0007876767e-06 1.0344491234e-06 8.823728335e-07 8.6547253125e-07 9.0776191381e-07
          9.2489521611e-07 1.0399720826e-06 9.1580386677e-07 1.0207272762e-06 1.0219906227e-06 1.0340269005e-06
          1.0490425468e-06 1.0455852097e-06 8.9044399248e-07 8.4507982966e-07 9.7474226455e-07 1.0421775563e-06
          8.6867202325e-07 9.9478684364e-07 9.4179445381e-07 9.5707121751e-07 8.6859697208e-07 1.0099834658e-06
          9.2107876747e-07 1.0315562844e-06 1.8087732226e-06 1.5458607153e-06 8.9318852071e-07 9.3420761356e-07
          8.693858521e-07 9.1893297077e-07 8.7651253381e-07 8.9673308169e-07 9.346350536e-07 8.6648187959e-07
          8.7506993029e-07 9.6078002446e-07 9.0663436109e-07 8.2570011696e-07 8.9271485388e-07 9.9061352426e-07
          8.9680585304e-07 1.0425848634e-06 9.8025362385e-07 1.0211785218e-06 9.3877390287e-07 8.7585070253e-07
          1.0492207462e-06 8.8610261596e-07 9.2307920728e-07 9.9994033508e-07 9.4281059348e-07 7.9282762523e-07
          9.5725382014e-07 1.0451878804e-06 9.9201987349e-07 1.0332335616e-06 8.6905552308e-07 9.0040153976e-07
          8.8143952073e-07 9.8743728215e-07 8.1482041748e-07 9.9113860415e-07 9.5641342839e-07 8.9250716847e-07
          9.6822239534e-07 1.0408109867e-06 9.8407828232e-07 9.5611713538e-07 8.1357060592e-07 1.0170843843e-06
          8.9769322839e-07 9.1905149883e-07 9.9043747049e-07 9.4860027616e-07 1.0091012608e-06 9.4463971699e-07
          9.6587684606e-07 8.8577225362e-07 9.0125806074e-07 9.3793753585e-07 9.6595335121e-07 8.1423645803e-07
          1.92079446e-06 8.7302283463e-07 9.326406134e-07 8.781816093e-07 1.0185075734e-06 9.797336411e-07
          8.5410251561e-07 8.4412256811e-07 8.8793790175e-07 8.7480585191e-07 8.4667010044e-07 9.5952063174e-07
          1.0464081159e-06 9.0188879329e-07 9.6174531504e-07 8.9197388085e-07 9.3485648663e-07 8.1136085753e-07
          9.4024503072e-07 8.9325033121e-07 8.6818626556e-07 9.0240782028e-07 9.3107696383e-07 9.051284136e-07
          8.970440589e-07 9.2212644432e-07 8.7102236768e-07 9.1342083661e-07 8.9795378571e-07 8.8216615349e-07
          8.7018348055e-07 8.49786119e-07 1.6126916851e-06 8.7100871735e-07 8.74324225e-07 8.4444623077e-07
          8.4523280957e-07 9.033601279e-07 8.9372701909e-07 8.8155812019e-07 8.6154457959e-07 8.8111404074e-07
          8.56601358e-07 8.5804550508e-07 8.6242966145e-07 8.8367906223e-07 9.6639671703e-07 1.592034823e-06
          8.2703156298e-07 8.0955206674e-07 8.0671798562e-07 8.8565692883e-07 7.9672806887e-07 8.8747175434e-07
          8.259147246e-07 8.8626216018e-07 1.562240306e-06 7.9885735882e-07 7.9320800459e-07 8.0921226683e-07
          8.9359036491e-07 8.7627652087e-07 7.9615424026e-07 8.6310529667e-07 8.0030255343e-07 8.4541955773e-07
          8.2282880753e-07 9.7002405569e-07 9.4587767292e-07 1.0092955688e-06 1.031192005e-06 8.8188957632e-07
          7.9423780051e-07 9.3571628473e-07 9.5196736471e-07 1.0493210885e-06 8.204406626e-07 9.3972756753e-07
          8.5496061085e-07 9.9465726574e-07 8.5157655932e-07 8.2708222861e-07 8.6508481764e-07 9.0512543599e-07
          9.0928325695e-07 7.9701715146e-07 1.8513693188e-06 9.5697866704e-07 9.8104291938e-07 1.0063315142e-06
          1.0055257052e-06 1.052547266e-06 9.1886030332e-07 9.4317648905e-07 1.776669308e-06 1.0456268128e-06
          1.0198241227e-06 1.0051973307e-06 9.7060379702e-07 9.7257099697e-07 9.7205800569e-07 1.0545124927e-06
          9.3134909701e-07 9.4763536294e-07 1.0120237922e-06 1.0230142317e-06 1.0034538929e-06 8.9439803693e-07
          9.7788984128e-07 9.410132005e-07 9.7758367569e-07 9.6578871645e-07 8.8389008541e-07 9.9862695555e-07
          9.5339957369e-07 1.793855432e-06 9.3726619005e-07 8.7080583696e-07 9.7767469677e-07 1.8112029238e-06
          1.5859757768e-06 8.8658122945e-07 9.1690811321e-07 9.9517831015e-07 9.7819040181e-07 1.0296418942e-06
          1.861437044e-06 9.7557794404e-07 1.0439938935e-06 8.6268718843e-07 9.5436416445e-07 9.9795867233e-07
          1.7489309445e-06 9.0709355203e-07 9.2207036592e-07 8.8706936319e-07 9.3876942131e-07 1.0253379086e-06
          8.2340301725e-07 1.0437324566e-06 9.6778362561e-07 8.8539651376e-07 8.7504212575e-07 9.4464919789e-07
          9.2814423371e-07 8.7736205608e-07 9.7000031718e-07 1.9659036249e-06 1.0097401696e-06 8.3627930849e-07
          1.025918922e-06 1.6768517534e-06 1.9189578495e-06 1.5116681995e-06 9.5403440751e-07 1.0390798905e-06
          8.4017633515e-07 9.2237981699e-07 8.9389519792e-07 1.027890947e-06 8.5310759875e-07 1.0459661326e-06
          8.7568169471e-07 1.0410776589e-06 1.0365889247e-06 1.9244171868e-06 1.7778066845e-06 8.8910498025e-07
          9.7800900116e-07 9.1843464368e-07 8.5998891706e-07 9.9234389388e-07 8.490232611e-07 8.2947931231e-07
          1.0368649449e-06 1.9454415518e-06 1.5345482337e-06 1.6869323247e-06 1.7782977966e-06 9.2152779565e-07
          8.2820581503e-07 9.836107617e-07 1.0000593881e-06 8.8545627489e-07 9.0995973334e-07 9.3800256717e-07
          8.8071825729e-07 9.999980313e-07 8.4491948737e-07 1.000158575e-06 1.8679804585e-06 1.9119101044e-06
          1.7841938982e-06 1.7025708531e-06 1.8810952349e-06 9.5228579843e-07 9.7846502374e-07 9.348995556e-07
          9.9431796631e-07 8.8682395081e-07 8.0478749331e-07 8.9540726186e-07 9.290785573e-07 1.7695802706e-06
          1.5432132319e-06 9.4363547191e-07 1.0320735575e-06 9.145884224e-07 1.0293007293e-06 9.0075575463e-07
          8.5601259062e-07 1.014249251e-06 9.9544730764e-07 1.0478459221e-06 1.4969883436e-06 1.5588806447e-06
          1.855177546e-06 1.7167731253e-06 8.4236427076e-07 9.6301447205e-07 1.0396725205e-06 9.7322497744e-07
          8.3831166878e-07 9.3317305738e-07 1.0131166749e-06 1.0033253922e-06 1.0510332018e-06 9.566853996e-07
          1.7309353004e-06 8.5637763283e-07 8.2102632808e-07 9.2051566805e-07 9.7395821275e-07 9.4727088357e-07
          9.6711361284e-07 9.4791253646e-07 1.7568328023e-06 8.7842243212e-07 1.0058328403e-06 1.5690430914e-06
          9.3197957091e-07 8.2354669322e-07 9.315062436e-07 8.9684229725e-07 8.8176253841e-07 9.4125323268e-07
          9.010425112e-07 8.4335884457e-07 9.1056884677e-07 9.3813669828e-07 8.4593779014e-07 8.2763331172e-07
          1.6204598247e-06 9.2957528245e-07 8.7390565014e-07 8.9326189803e-07 8.3333951176e-07 9.0543158234e-07
          8.6228593622e-07 8.4942930611e-07 8.3675715551e-07 8.4579186774e-07 9.0774639825e-07 8.9996863262e-07
          8.3792066415e-07 8.653624744e-07 9.0163042035e-07 8.1536870209e-07 8.7315786812e-07 1.0453325485e-06
          1.575560155e-06 8.3832114955e-07 8.4547337638e-07 8.2352012847e-07 1.0477457022e-06 1.0539147912e-06
          9.8258603465e-07 1.0178510767e-06 9.6768234217e-07 1.004441074e-06 1.0040980824e-06 1.7794232233e-06
          8.7628180539e-07 9.7702100275e-07 8.328242934e-07 8.9417018453e-07 8.5056755171e-07 1.03700695e-06
          1.0429100426e-06 9.3967457778e-07 8.592005111e-07 9.0586865836e-07 1.0339575378e-06 1.0448513796e-06
          9.6789053984e-07 9.6992329234e-07 8.5894782071e-07 1.7588580897e-06 9.9455310514e-07 8.7822479727e-07
          9.1469631972e-07 1.7851732926e-06 9.7046350967e-07 1.0070286783e-06 9.6875219291e-07 9.7318199245e-07
          9.2429072992e-07 9.4649167113e-07 1.8626078414e-06 1.0544120493e-06 8.5258696085e-07 9.4817759207e-07
          9.9326005608e-07 1.8245874428e-06 1.7711893137e-06 8.7457359395e-07 9.6847584966e-07 1.0410213797e-06
          8.8193775915e-07 8.0849817312e-07 8.4955771872e-07 9.5978092611e-07 8.6433051755e-07 9.8814518994e-07
          1.6885128207e-06 8.8401908974e-07 8.7757120517e-07 9.3842563799e-07 1.9180339572e-06 1.0052612676e-06
          9.4260215901e-07 9.3610619656e-07 9.3597468586e-07 1.0318704508e-06 1.0142121436e-06 9.4422752933e-07
          9.4063033827e-07 1.0258100301e-06 1.0241610516e-06 9.2167508375e-07 1.9671401027e-06 8.4869203215e-07
          8.7556945033e-07 1.7822010177e-06 9.3978436929e-07 1.0196176187e-06 9.6202131855e-07 8.3028539388e-07
          9.3645353567e-07 9.3948767764e-07 1.0277270876e-06 1.041502129e-06 8.6063648752e-07 8.9982225056e-07
          9.9762113017e-07 8.4692652782e-07 9.9630821014e-07 9.3248769607e-07 9.2232437283e-07 1.6515562066e-06
          1.5949258586e-06 9.2376846478e-07 1.0228587261e-06 1.7826211031e-06 9.0498455981e-07 1.0381523522e-06
          9.0987179453e-07 8.7802669698e-07 9.6340792435e-07 8.9402747137e-07 8.7409082419e-07 9.7579354902e-07
          1.0143417368e-06 9.2720992903e-07 1.6522283613e-06 8.9501729591e-07 1.0332723924e-06 1.0295675042e-06
          9.1582690023e-07 1.5640213909e-06 1.8620034287e-06 1.6309571935e-06 8.8405302222e-07 8.8597441475e-07
          8.1102962569e-07 9.1895279363e-07 8.8160476176e-07 9.2758202229e-07 9.091946395e-07 9.3475099907e-07
          1.0114277575e-06 8.8013765144e-07 9.7371101345e-07 9.9308732463e-07 1.5761763755e-06 1.6227307964e-06
          1.7342260043e-06 1.0392562245e-06 8.9046133652e-07 1.0047527963e-06 9.089898156e-07 8.7383074891e-07
          8.0720086293e-07 9.9656620228e-07 8.5905757151e-07 1.6166011072e-06 1.5360637372e-06 1.6428957029e-06
          9.983219741e-07 8.4270149165e-07 9.2107629757e-07 9.2139352042e-07 8.8709759585e-07 9.8019914464e-07
          8.3044640822e-07 1.0122465943e-06 9.9571598204e-07 8.7235379657e-07 8.0460576073e-07 1.0090928021e-06
          9.0433233139e-07 9.2972532807e-07 8.662387344e-07 1.0391143245e-06 1.0347239602e-06 8.6576891972e-07
          9.1422201174e-07 9.6873179102e-07 9.1044611988e-07 8.6324188738e-07 8.5307376564e-07 8.811921771e-07
          8.9646562343e-07 1.0324137708e-06 9.4661319892e-07 9.1899799563e-07 9.4349546925e-07 8.8143823706e-07
          9.0555706562e-07 9.4712405978e-07 9.8950638596e-07 1.0146098335e-06 9.4992045155e-07 9.68369236e-07
          1.9281727367e-06 8.8759869178e-07 9.9693312174e-07 8.6720283794e-07 1.0098094637e-06 1.0075265557e-06
          9.60772683e-07 8.617746434e-07 8.6458765176e-07 1.7635152912e-06 1.8408402475e-06 8.6906631259e-07
          8.9519843566e-07 8.8915098921e-07 9.2258362214e-07 8.9033490391e-07 1.0422700965e-06 9.9090269845e-07
          1.791886121e-06 1.8207553295e-06 1.7275742042e-06 9.3641118057e-07 9.4690510944e-07 1.7638106424e-06
          8.7527516064e-07 8.4109953144e-07 8.6711560811e-07 8.6287667369e-07 8.6793317589e-07 1.8513992451e-06
          9.5841602369e-07 1.0527827324e-06 9.502758137e-07 9.9485178945e-07 1.0310120032e-06 9.2632998882e-07
          8.8104073672e-07 9.7158119731e-07 9.0893075253e-07 1.6700627363e-06 1.7977932855e-06 1.6824340952e-06
          8.82373321e-07 8.8222445075e-07 9.4826119771e-07 1.5901246398e-06 9.3051688897e-07 1.883086612e-06
          9.4207391824e-07 8.8629384156e-07 9.782971544e-07 1.0372383602e-06 1.6879318767e-06 8.5244399854e-07