<?xml version="1.0"?>
<VTKFile type="UnstructuredGrid" version="0.1" byte_order="LittleEndian" header_type="UInt32" compressor="vtkZLibDataCompressor">
  <UnstructuredGrid>
    <Piece NumberOfPoints="214" NumberOfCells="214">
      <PointData>
        <DataArray type="Int32" Name="id" format="ascii" RangeMin="1" RangeMax="214">
          133 174 75 19 134 59
          50 123 97 49 42 118
          131 15 22 44 3 196
          206 93 40 1 78 176
          175 54 150 117 24 7
          124 119 20 109 154 62
          106 84 141 161 137 61
          166 188 198 203 207 208
          148 121 77 177 32 51
          60 85 105 81 151 167
          129 155 67 18 92 160
          145 135 14 26 82 57
          158 89 12 181 186 189
          192 209 111 64 37 34
          142 156 90 168 79 46
          35 101 157 2 126 86
          115 136 69 48 120 72
          149 39 13 99 30 113
          23 96 95 182 187 199
          200 204 210 211 110 43
          127 56 33 159 73 6
          38 179 146 47 87 116
          17 173 88 41 169 91
          102 58 10 190 197 107
          11 162 66 138 103 45
          130 152 36 191 212 125
          55 163 25 80 147 74
          5 140 4 132 108 164
          9 76 139 52 183 184
          185 193 195 213 68 104
          21 29 65 170 122 178
          28 8 83 94 114 144
          63 53 165 153 27 70
          171 31 128 180 16 112
          172 100 71 98 143 194
          201 202 205 214
        </DataArray>
        <DataArray type="Int32" Name="type" format="ascii" RangeMin="1" RangeMax="2">
          2 2 2 1 1 1
          1 1 1 1 1 1
          1 1 1 1 1 1
          2 1 1 1 2 2
          2 1 1 1 1 1
          2 1 1 2 2 2
          2 1 2 2 2 2
          1 2 2 1 2 2
          2 2 2 2 1 1
          1 1 2 1 1 1
          1 2 2 1 1 1
          1 2 1 1 1 1
          2 1 1 2 1 2
          1 2 2 2 1 1
          2 2 1 1 2 1
          1 1 2 1 1 1
          1 2 2 1 1 2
          2 1 1 1 1 2
          1 1 1 2 1 2
          2 1 2 2 1 1
          2 1 1 2 2 1
          1 1 1 1 1 1
          1 1 1 1 1 1
          1 1 1 2 1 2
          1 2 2 2 1 1
          1 1 1 2 2 2
          1 2 1 1 1 2
          1 1 1 2 2 2
          1 2 2 1 2 2
          2 1 2 2 2 1
          1 1 2 2 2 2
          1 1 1 1 2 2
          2 1 2 1 1 2
          2 1 2 2 1 2
          2 1 2 1 2 1
          2 2 1 2
        </DataArray>
        <DataArray type="Float64" Name="diameter" format="ascii" RangeMin="7.9967999505e-07" RangeMax="1.9683783099e-06">
          8.6592035345e-07 9.929723925e-07 9.2514661709e-07 1.692879309e-06 1.642589888e-06 1.7564791749e-06
          1.7449407675e-06 1.7783364008e-06 1.935590072e-06 1.8004174789e-06 1.8754744108e-06 1.8198971425e-06
          1.5989828164e-06 1.6899669301e-06 1.8103537758e-06 1.5988163396e-06 1.9145467912e-06 1.5427080326e-06
          8.5708141876e-07 1.6358165806e-06 1.829140657e-06 1.7231093236e-06 9.8992615868e-07 9.5951001134e-07
          9.497282172e-07 1.8549755676e-06 1.5824951552e-06 1.8100924342e-06 1.6811014888e-06 1.9666432669e-06
          9.6111868599e-07 1.6474368288e-06 1.8546065209e-06 8.9674781596e-07 9.8423374509e-07 1.0421350096e-06
          1.0221098333e-06 1.6505493254e-06 9.3001759579e-07 9.6171263415e-07 9.2463282759e-07 8.5933158915e-07
          1.5926255256e-06 8.7098756203e-07 8.1446398089e-07 1.4835888412e-06 7.9967999505e-07 8.543039609e-07
          8.4706356219e-07 1.017234122e-06 1.0007410029e-06 9.4513959903e-07 1.9044892167e-06 1.874231939e-06
          1.7460756903e-06 1.5434094094e-06 1.0214211422e-06 1.6807023035e-06 1.5956293856e-06 1.5911027882e-06
          1.6847995196e-06 1.0514173351e-06 9.4906471943e-07 1.6130616824e-06 1.8529215262e-06 1.5852591295e-06
          1.5597090197e-06 9.3108408968e-07 1.6689596485e-06 1.9683783099e-06 1.6534703641e-06 1.8987275433e-06
          1.0256998404e-06 1.8218712314e-06 1.7197472811e-06 8.9293936404e-07 1.6300278116e-06 8.9337595664e-07
          1.5488348432e-06 8.4565125283e-07 8.566392973e-07 1.0467472517e-06 1.8546064438e-06 1.851260945e-06
          9.3251915222e-07 9.8484519141e-07 1.5443801991e-06 1.5903367726e-06 1.0369699447e-06 1.8589635803e-06
          1.9666432341e-06 1.7862934584e-06 9.9490988949e-07 1.7695540653e-06 1.6808085929e-06 1.6526743264e-06
          1.6872324186e-06 9.4608265624e-07 9.2381747e-07 1.8017504294e-06 1.7105503652e-06 8.134925537e-07
          1.0066568075e-06 1.5987433169e-06 1.8603555681e-06 1.7727951885e-06 1.844029283e-06 1.0273850754e-06
          1.8832592416e-06 1.7540356543e-06 1.9371164886e-06 8.9119291643e-07 1.631053081e-06 8.1667491738e-07
          8.238195139e-07 1.5350865877e-06 8.5177084097e-07 8.7617387978e-07 1.7327320093e-06 1.9666432745e-06
          9.1675218017e-07 1.8406996979e-06 1.8091868622e-06 1.0513795974e-06 9.7970732728e-07 1.8546064545e-06
          1.8843359206e-06 1.5744420422e-06 1.559709044e-06 1.9204452833e-06 1.6631033098e-06 1.7456958868e-06
          1.6529966646e-06 1.5700966995e-06 1.636156548e-06 1.8788455845e-06 1.5789212195e-06 1.527077059e-06
          1.7055816551e-06 1.7197473076e-06 1.940595038e-06 9.0739437651e-07 1.6127788647e-06 9.980667255e-07
          1.7270409818e-06 9.8784554222e-07 8.3397000819e-07 8.8624984866e-07 1.9031500216e-06 1.8624502852e-06
          1.777076064e-06 1.6914338769e-06 1.5706751979e-06 9.2943434351e-07 8.5853943037e-07 9.7778511482e-07
          1.9036700994e-06 1.0065914448e-06 1.7349477394e-06 1.6230434696e-06 1.5408379704e-06 9.6152563402e-07
          1.8754744013e-06 1.7049752304e-06 1.627902078e-06 9.4338299949e-07 1.0190219439e-06 9.6240484664e-07
          1.650203024e-06 8.8126375441e-07 8.9850750975e-07 1.9536191732e-06 9.047001294e-07 9.0500382939e-07
          9.2251695908e-07 1.532416197e-06 8.9700924932e-07 8.301346719e-07 9.2814412459e-07 1.7627793472e-06
          1.7973296064e-06 1.8726193217e-06 9.9402464525e-07 9.5387612969e-07 1.0237410781e-06 8.9654574777e-07
          1.8742319327e-06 1.9666432395e-06 1.6680153996e-06 1.6029235877e-06 8.3332869769e-07 1.0304933145e-06
          1.0200165713e-06 1.8291406676e-06 9.5968871455e-07 1.6094786504e-06 1.9313568925e-06 9.8916048481e-07
          9.8443028221e-07 1.7936459794e-06 9.8608073715e-07 8.8208952118e-07 1.6548511967e-06 1.0027512412e-06
          9.4434289132e-07 1.7152724437e-06 8.3986811518e-07 1.8841898196e-06 9.0690556913e-07 1.5008521109e-06
          8.9743585719e-07 8.3906241862e-07 1.5217876318e-06 8.5848707975e-07
        </DataArray>
      </PointData>
      <CellData>
      </CellData>
      <Points>
        <DataArray type="Float32" Name="Points" NumberOfComponents="3" format="ascii" RangeMin="9.7672152958e-06" RangeMax="0.00013165007037">
          1.9615537894e-05 2.3452057576e-05 4.2361182295e-07 1.957783752e-05 2.3093909476e-05 1.4989146848e-06
          2.0241579477e-05 2.3752609195e-05 1.4187635315e-06 4.9555333135e-06 8.5538576968e-06 1.9486051315e-06
          1.2851462088e-05 1.6988147763e-05 1.7682681346e-06 4.072741649e-05 1.5487619748e-05 2.4707890134e-06
          1.3362891877e-05 1.5572108168e-05 2.5332012683e-06 4.9442137424e-06 7.686770914e-06 3.4448219139e-06
          4.1295967094e-05 1.5513442122e-05 4.2212100198e-06 3.1451425457e-05 8.1974958448e-06 5.5240225265e-06
          1.7200000002e-05 5.7000002016e-06 6.1699997786e-06 1.4883903532e-06 9.2980844784e-06 6.2920357777e-06
          3.2112217013e-05 9.1121773949e-06 6.7675564424e-06 2.0337113256e-06 1.0850947547e-05 6.9271195571e-06
          1.4600000213e-05 8.9300001491e-06 7.4399999903e-06 2.5834011467e-05 1.6655209038e-05 6.613374353e-06
          4.6400000429e-05 1.1600000107e-05 7.9499995991e-06 2.537420005e-05 1.6939708075e-05 8.0804238678e-06
          1.9377161152e-05 2.3280605092e-05 9.3311740557e-07 1.4107721654e-05 3.8804879296e-05 2.3942200187e-06
          1.4482788174e-05 4.0305272705e-05 2.2993369839e-06 2.9405657187e-05 4.0633305616e-05 3.5223047234e-06
          4.5865715947e-05 4.0937269659e-05 3.818402547e-06 4.5158518333e-05 4.0803206502e-05 4.8613492254e-06
          4.5681408665e-05 4.1510935262e-05 4.5417750698e-06 3.1035349821e-05 4.8795245675e-05 4.8637703003e-06
          3.9058355469e-05 3.9069058403e-05 5.0085805015e-06 2.9394090234e-05 3.9747352275e-05 5.0510716392e-06
          3.9555943658e-05 3.7691344914e-05 5.752810921e-06 1.7500000467e-05 4.059999992e-05 5.6099997892e-06
          4.5711778512e-05 4.1134735511e-05 5.5371615417e-06 3.1728253816e-05 4.975437696e-05 6.1677383201e-06
          4.6527320592e-06 2.9519362215e-05 6.8962986006e-06 4.5890860747e-06 3.2353418646e-05 6.1245846155e-06
          5.8730952333e-06 3.3386055293e-05 7.1673798629e-06 4.9192549341e-06 3.3622931369e-05 7.1232498158e-06
          3.69240297e-05 3.9783823013e-05 7.226334219e-06 6.031621524e-06 2.9222146622e-05 7.9158753579e-06
          4.4813077693e-06 3.2790117984e-05 7.4433905866e-06 3.6681369238e-05 4.0455219278e-05 7.8639150161e-06
          3.6158362491e-05 4.0533981519e-05 8.7998496383e-06 3.771025149e-05 4.0266335418e-05 8.9786890385e-06
          5.1575507314e-06 2.9672628443e-05 9.2154341473e-06 3.6999761505e-05 4.0272600017e-05 8.9689519882e-06
          4.8403517212e-06 3.2765165088e-05 8.2181686594e-06 1.3710221538e-05 3.8497411879e-05 9.1739144636e-07
          4.6397776714e-06 3.2840383938e-05 6.7997616497e-06 3.8012000005e-05 3.9941514842e-05 8.2621363617e-06
          3.5950801248e-05 6.9973699283e-05 2.4736143587e-06 3.66950444e-05 6.9521491241e-05 2.2575213734e-06
          3.6484572774e-05 7.0502435847e-05 2.2595547762e-06 3.7443896872e-05 7.0429392508e-05 2.2144945433e-06
          3.5306176869e-05 7.2273112892e-05 1.9936178433e-06 3.7406809952e-06 5.7287314121e-05 3.1500471778e-06
          1.5957921278e-05 6.7340413807e-05 3.6670883219e-06 3.5254288377e-05 7.0702895755e-05 3.1996714824e-06
          4.0493982851e-06 7.3102142778e-05 4.1957600843e-06 4.0351451389e-06 5.6524440879e-05 4.8516149036e-06
          4.5965093705e-06 5.8064997575e-05 5.0282756092e-06 9.2227273853e-06 6.7021879659e-05 5.1014849305e-06
          1.5450303181e-05 6.7654495069e-05 5.286666692e-06 3.9894935071e-06 7.3332244938e-05 5.199928637e-06
          5.0616849876e-06 7.3238028563e-05 4.9961363402e-06 1.0057895452e-05 5.4713007557e-05 5.5651776165e-06
          2.3121086997e-05 6.5472246206e-05 5.8928376347e-06 5.878338925e-06 6.2757026171e-05 6.4237624429e-06
          4.9303794185e-06 7.0345595304e-05 6.258349913e-06 4.554098723e-06 7.2954069765e-05 5.8904533944e-06
          7.3581481956e-06 6.2175517087e-05 6.6505149334e-06 2.3693271942e-05 6.3887993747e-05 6.7486398621e-06
          9.2700893219e-06 6.7045002652e-05 6.7289483923e-06 9.8389318737e-06 6.8723413278e-05 6.5673257268e-06
          2.8731916245e-05 7.3934148531e-05 6.8703961915e-06 7.3239266385e-06 6.3476072683e-05 7.897229807e-06
          5.3490575738e-06 7.0669440902e-05 7.8138637036e-06 4.8964293455e-06 7.3790200986e-05 5.6824146668e-06
          3.5335062421e-05 7.1946167736e-05 4.1456114559e-06 4.3095092224e-06 7.3454219091e-05 6.5771446316e-06
          9.297548786e-06 5.3511401347e-05 6.2214908212e-06 3.5486216802e-05 6.9723995693e-05 1.8299957674e-06
          4.8727870308e-05 8.4032108134e-05 9.0964709898e-07 4.9761583796e-05 8.4433057054e-05 8.4859794924e-07
          3.8396392483e-05 8.4586383309e-05 1.4124453855e-06 9.1298843472e-06 8.3833016106e-05 1.8389216621e-06
          4.8828045692e-05 8.4231498477e-05 1.4586825046e-06 4.9555077567e-05 8.501499542e-05 1.6235744624e-06
          5.2089967539e-06 7.7871445683e-05 2.190082796e-06 3.9339829527e-05 8.4584469732e-05 2.8440501865e-06
          7.2316970545e-06 8.6347434262e-05 2.7745807074e-06 5.9618091655e-06 8.0547164544e-05 3.5140785712e-06
          4.3299998651e-05 7.6700001955e-05 3.8200000745e-06 8.5983483586e-06 8.416188939e-05 3.5348114125e-06
          6.9870634434e-06 8.6885440396e-05 3.5731600292e-06 4.001439811e-05 9.1279973276e-05 3.884790658e-06
          3.842274964e-05 9.1905429144e-05 3.6409012409e-06 3.9124010073e-05 8.4643659648e-05 4.4500038712e-06
          2.4984763513e-05 8.9333509095e-05 4.4703319872e-06 6.7542264333e-06 8.7067892309e-05 4.6573431973e-06
          8.4543626144e-06 8.6386651674e-05 4.4403495849e-06 4.559264562e-05 7.7956530731e-05 5.3132762332e-06
          4.6193519665e-05 7.9605502833e-05 5.5023697314e-06 2.8806487535e-05 7.4763178418e-05 5.7063807617e-06
          2.984992534e-05 7.4365016189e-05 6.1387386268e-06 4.7707693739e-05 7.7286771557e-05 5.9189433159e-06
          2.5434706913e-05 8.9681547252e-05 6.1420064412e-06 1.1933425412e-05 7.6038086263e-05 6.9612906373e-06
          4.770605301e-05 9.556360601e-05 6.6200182118e-06 2.935050361e-05 7.4359559221e-05 7.5201164691e-06
          1.2480921214e-05 7.4522191426e-05 7.7801669249e-06 4.8044068535e-05 7.767626812e-05 7.6174947026e-06
          4.7693694796e-05 9.4617040304e-05 8.2533770183e-06 7.5775883488e-06 8.673065895e-05 4.5334136303e-06
          5.1459351198e-06 7.9054683738e-05 3.2623913739e-06 4.916042235e-05 8.4167841123e-05 2.2426768282e-06
          8.5054616648e-06 8.6877524154e-05 5.1209517551e-06 4.6946821385e-05 7.6084339526e-05 6.5757103584e-06
          4.9028545618e-05 8.3708444436e-05 4.1651185256e-07 2.8908943932e-05 7.4284514994e-05 6.3775360104e-06
          6.3440318627e-05 1.4919000932e-05 2.31160152e-06 5.6400000176e-05 2.2800000806e-05 2.2599999738e-06
          5.0758299039e-05 1.3379923075e-05 2.5681442821e-06 6.3973973738e-05 1.3441423107e-05 3.1097774809e-06
          5.8764242567e-05 5.3865041991e-06 4.3669160732e-06 5.0716676924e-05 1.2959510968e-05 4.2255105654e-06
          5.1384609833e-05 1.3694599147e-05 4.0588893171e-06 8.0120895291e-05 1.8887323677e-05 4.230696959e-06
          9.3606169685e-05 8.0927147792e-06 4.8542983677e-06 9.2972964922e-05 1.6022500859e-05 4.7324606385e-06
          8.7200380221e-05 3.3955916479e-06 5.9183498706e-06 5.4427135183e-05 1.6983873138e-05 5.5283117035e-06
          8.0421974417e-05 1.8143804482e-05 5.9331205193e-06 5.8243997046e-05 5.7083966567e-06 6.0267898334e-06
          7.165846182e-05 1.2401957065e-05 6.2562194216e-06 7.0178655733e-05 1.2983458873e-05 6.0294673858e-06
          9.3024515081e-05 1.6058742403e-05 6.3480715653e-06 9.3582319096e-05 1.7703936464e-05 6.1987907429e-06
          8.0969228293e-05 1.9645647626e-05 6.1053419813e-06 9.3554335763e-05 6.5239346441e-06 6.0594306888e-06
          5.5136431911e-05 1.7965694497e-05 6.8631247814e-06 8.761906065e-05 3.7194427023e-06 7.4738636613e-06
          9.3100003141e-05 2.3900000087e-05 7.4300000961e-06 5.0394544814e-05 1.3223682799e-05 3.3529931898e-06
          9.3635026133e-05 7.7659215094e-06 7.0043961387e-06 5.3198000387e-05 4.8692560085e-05 1.3776883634e-06
          5.7233064581e-05 3.8487876736e-05 2.4781732009e-06 5.2681021771e-05 4.8537160183e-05 2.1945395474e-06
          5.3744519391e-05 4.8922560381e-05 2.520781436e-06 5.3542520618e-05 4.812736006e-05 3.1515546652e-06
          5.779037383e-05 3.8513186155e-05 4.1939929361e-06 7.2800001362e-05 4.9700000091e-05 5.4199999795e-06
          8.7424523372e-05 4.9615540775e-05 5.6191747717e-06 8.8337226771e-05 2.5151715818e-05 7.7839695223e-06
          8.8844899437e-05 2.6597375836e-05 8.3752092905e-06 5.2673611208e-05 4.8344296374e-05 3.1265847156e-06
          5.3834293794e-05 4.9108472012e-05 3.3268995594e-06 7.3877868999e-05 7.3247691034e-05 8.6841862412e-07
          5.2123617934e-05 5.3319199651e-05 1.8337710799e-06 7.3963492468e-05 7.3436931416e-05 1.8103468165e-06
          9.2458845756e-05 5.3527764976e-05 1.9879826141e-06 5.2910723753e-05 5.3903131629e-05 3.2885366181e-06
          9.3104747066e-05 5.4421838286e-05 3.2035011372e-06 7.9441815615e-05 7.0123081969e-05 3.481947715e-06
          7.4399998994e-05 7.1700000262e-05 3.7800000428e-06 5.2788051107e-05 5.2929364756e-05 4.6214663598e-06
          7.6936870755e-05 5.5680488003e-05 5.2152827266e-06 7.9154167906e-05 6.9890316809e-05 4.4966900532e-06
          7.4983770901e-05 5.7489312894e-05 5.0545759223e-06 7.5926218415e-05 5.7620953157e-05 5.2454101933e-06
          8.7957574578e-05 5.1133480156e-05 6.239976301e-06 7.6126547356e-05 5.7534936786e-05 6.1319856286e-06
          7.5774485595e-05 5.7873461628e-05 6.5638687374e-06 7.9899997218e-05 6.6799999331e-05 7.1700001172e-06
          7.9269389971e-05 7.0723559475e-05 4.1592325033e-06 7.8944438428e-05 7.0440481068e-05 5.1843421716e-06
          7.4813782703e-05 7.3850838817e-05 9.6652615866e-07 7.6512813393e-05 5.6966960983e-05 4.3819118218e-06
          7.5266099884e-05 5.7501642004e-05 5.9388785303e-06 7.6936572441e-05 5.7308876421e-05 6.1591099438e-06
          7.4494702858e-05 7.4223527918e-05 1.7504785319e-06 7.4333620432e-05 8.6237538198e-05 1.4115870499e-06
          5.0700000429e-05 7.5800002378e-05 1.5699999949e-06 7.4880706961e-05 8.4722771135e-05 2.2298513613e-06
          9.7767515399e-05 8.7623644504e-05 2.1112941795e-06 9.7614960396e-05 8.8291824795e-05 2.7593855521e-06
          9.7120486316e-05 8.7558524683e-05 3.129113793e-06 9.747990407e-05 8.7661945145e-05 3.9750589167e-06
          8.2209917309e-05 8.9103479695e-05 3.779086228e-06 7.1800001024e-05 9.4000002719e-05 4.5400001909e-06
          8.3377221017e-05 8.8914282969e-05 5.0865805861e-06 7.0626403613e-05 8.8494816737e-05 5.2938999033e-06
          8.5433166532e-05 7.8031385783e-05 6.1043701862e-06 8.644607442e-05 7.7544485976e-05 6.4083151301e-06
          8.6962572823e-05 7.8311175457e-05 5.9951230469e-06 7.14827911e-05 9.0905268735e-05 6.0593370108e-06
          8.6696774815e-05 7.8789060353e-05 6.8058252509e-06 8.264160715e-05 8.9271408797e-05 6.5082822402e-06
          7.532685413e-05 9.3983486295e-05 6.5077833824e-06 5.4499716498e-05 9.5190713182e-05 6.7631312959e-06
          5.3210907936e-05 9.5566196251e-05 6.6691072789e-06 6.4105923229e-05 8.9854009275e-05 7.3865799095e-06
          5.36826592e-05 9.589419642e-05 7.4502827374e-06 5.4588726925e-05 9.5724441053e-05 7.5140960689e-06
          9.173554281e-05 8.3656566858e-05 8.5650408437e-06 9.199881606e-05 8.4861334471e-05 7.7180620792e-06
          9.288982983e-05 8.4576218796e-05 7.6155870374e-06 7.6036682003e-05 9.4966038887e-05 7.8435941759e-06
          9.3473667221e-05 8.4463834355e-05 8.6409354481e-06 6.4093823312e-05 8.8926615717e-05 8.9868526629e-06
          9.3277696578e-05 8.4575047367e-05 9.5549103207e-06 9.133725689e-05 8.3348495536e-05 7.0853134275e-06
          8.5535939434e-05 7.7551267168e-05 6.777566341e-06 9.262952517e-05 8.5078085249e-05 9.2998034233e-06
          7.1158327046e-05 8.9954570285e-05 5.4612951317e-06 9.2682275863e-05 8.4277220594e-05 8.4493403847e-06
        </DataArray>
      </Points>
      <Cells>
        <DataArray type="Int64" Name="connectivity" format="ascii" RangeMin="0" RangeMax="213">
          0 1 2 3 4 5
          6 7 8 9 10 11
          12 13 14 15 16 17
          18 19 20 21 22 23
          24 25 26 27 28 29
          30 31 32 33 34 35
          36 37 38 39 40 41
          42 43 44 45 46 47
          48 49 50 51 52 53
          54 55 56 57 58 59
          60 61 62 63 64 65
          66 67 68 69 70 71
          72 73 74 75 76 77
          78 79 80 81 82 83
          84 85 86 87 88 89
          90 91 92 93 94 95
          96 97 98 99 100 101
          102 103 104 105 106 107
          108 109 110 111 112 113
          114 115 116 117 118 119
          120 121 122 123 124 125
          126 127 128 129 130 131
          132 133 134 135 136 137
          138 139 140 141 142 143
          144 145 146 147 148 149
          150 151 152 153 154 155
          156 157 158 159 160 161
          162 163 164 165 166 167
          168 169 170 171 172 173
          174 175 176 177 178 179
          180 181 182 183 184 185
          186 187 188 189 190 191
          192 193 194 195 196 197
          198 199 200 201 202 203
          204 205 206 207 208 209
          210 211 212 213
        </DataArray>
        <DataArray type="Int64" Name="offsets" format="ascii" RangeMin="1" RangeMax="214">
          1 2 3 4 5 6
          7 8 9 10 11 12
          13 14 15 16 17 18
          19 20 21 22 23 24
          25 26 27 28 29 30
          31 32 33 34 35 36
          37 38 39 40 41 42
          43 44 45 46 47 48
          49 50 51 52 53 54
          55 56 57 58 59 60
          61 62 63 64 65 66
          67 68 69 70 71 72
          73 74 75 76 77 78
          79 80 81 82 83 84
          85 86 87 88 89 90
          91 92 93 94 95 96
          97 98 99 100 101 102
          103 104 105 106 107 108
          109 110 111 112 113 114
          115 116 117 118 119 120
          121 122 123 124 125 126
          127 128 129 130 131 132
          133 134 135 136 137 138
          139 140 141 142 143 144
          145 146 147 148 149 150
          151 152 153 154 155 156
          157 158 159 160 161 162
          163 164 165 166 167 168
          169 170 171 172 173 174
          175 176 177 178 179 180
          181 182 183 184 185 186
          187 188 189 190 191 192
          193 194 195 196 197 198
          199 200 201 202 203 204
          205 206 207 208 209 210
          211 212 213 214
        </DataArray>
        <DataArray type="UInt8" Name="types" format="ascii" RangeMin="1" RangeMax="1">
          1 1 1 1 1 1
          1 1 1 1 1 1
          1 1 1 1 1 1
          1 1 1 1 1 1
          1 1 1 1 1 1
          1 1 1 1 1 1
          1 1 1 1 1 1
          1 1 1 1 1 1
          1 1 1 1 1 1
          1 1 1 1 1 1
          1 1 1 1 1 1
          1 1 1 1 1 1
          1 1 1 1 1 1
          1 1 1 1 1 1
          1 1 1 1 1 1
          1 1 1 1 1 1
          1 1 1 1 1 1
          1 1 1 1 1 1
          1 1 1 1 1 1
          1 1 1 1 1 1
          1 1 1 1 1 1
          1 1 1 1 1 1
          1 1 1 1 1 1
          1 1 1 1 1 1
          1 1 1 1 1 1
          1 1 1 1 1 1
          1 1 1 1 1 1
          1 1 1 1 1 1
          1 1 1 1 1 1
          1 1 1 1 1 1
          1 1 1 1 1 1
          1 1 1 1 1 1
          1 1 1 1 1 1
          1 1 1 1 1 1
          1 1 1 1 1 1
          1 1 1 1
        </DataArray>
      </Cells>
    </Piece>
  </UnstructuredGrid>
</VTKFile>
