<?xml version="1.0"?>
<VTKFile type="UnstructuredGrid" version="0.1" byte_order="LittleEndian" header_type="UInt32" compressor="vtkZLibDataCompressor">
  <UnstructuredGrid>
    <Piece NumberOfPoints="136" NumberOfCells="136">
      <PointData>
        <DataArray type="Int32" Name="id" format="ascii" RangeMin="1" RangeMax="136">
          133 75 134 19 59 50
          123 97 49 42 118 131
          15 22 44 3 93 40
          1 78 117 54 24 124
          7 119 20 109 62 106
          84 61 121 77 32 51
          60 85 81 105 129 67
          18 92 82 135 14 26
          57 12 89 111 64 34
          37 90 46 101 86 79
          35 2 126 136 69 115
          48 120 72 39 13 99
          30 113 23 96 95 110
          43 127 56 73 33 6
          38 116 88 47 87 91
          17 41 58 102 10 107
          11 66 103 45 130 36
          125 55 25 80 74 5
          4 132 108 9 76 52
          68 104 21 29 65 122
          28 8 94 83 114 63
          53 27 31 128 70 16
          112 100 71 98
        </DataArray>
        <DataArray type="Int32" Name="type" format="ascii" RangeMin="1" RangeMax="2">
          2 2 1 1 1 1
          1 1 1 1 1 1
          1 1 1 1 1 1
          1 2 1 1 1 2
          1 1 1 2 2 2
          1 2 2 2 1 1
          1 1 1 2 1 2
          1 1 1 2 1 1
          1 1 1 2 2 1
          1 1 1 1 1 2
          1 1 1 2 2 1
          1 1 2 1 1 1
          1 2 1 1 1 1
          1 2 1 2 1 1
          1 1 1 1 1 1
          1 1 1 1 1 2
          1 2 1 1 1 1
          2 1 1 1 2 1
          1 2 2 1 2 1
          2 1 1 1 2 2
          1 1 1 1 2 2
          1 1 1 2 2 1
          2 1 2 1
        </DataArray>
        <DataArray type="Float64" Name="diameter" format="ascii" RangeMin="8.1638082345e-07" RangeMax="1.9519423716e-06">
          8.1638082345e-07 9.1000036149e-07 1.5283895566e-06 1.5751826356e-06 1.6343607433e-06 1.6236245356e-06
          1.6546983588e-06 1.8010190381e-06 1.6752442488e-06 1.7450828808e-06 1.6933696073e-06 1.4878142353e-06
          1.5724727262e-06 1.6844897279e-06 1.8420319254e-06 1.7814387721e-06 1.8328235604e-06 1.7019704739e-06
          1.6033109114e-06 9.2167694972e-07 1.6842465597e-06 1.7260092158e-06 1.9147436983e-06 9.1226887617e-07
          1.8299132754e-06 1.5328995084e-06 1.7256658281e-06 1.0289444548e-06 9.5880158246e-07 9.4100385385e-07
          1.9016346534e-06 1.0488549333e-06 9.8485081902e-07 9.1857750455e-07 1.7720804655e-06 1.7439268119e-06
          1.6246805615e-06 1.8615356514e-06 1.9217577257e-06 9.6819095701e-07 1.5676645849e-06 8.6094865305e-07
          1.8541505315e-06 1.7240979823e-06 1.9025505502e-06 8.5218017148e-07 1.908763086e-06 1.8315276846e-06
          1.766719364e-06 1.9268623151e-06 1.6952064692e-06 1.0278499943e-06 9.57781731e-07 1.72255287e-06
          1.725665779e-06 1.8627065494e-06 1.7297199826e-06 1.6621022061e-06 1.9016345966e-06 9.595436714e-07
          1.8299132553e-06 1.6465266228e-06 1.5639511389e-06 8.6831733805e-07 8.2796002069e-07 1.5699283307e-06
          1.6764845434e-06 1.5916251183e-06 9.8160250863e-07 1.8376921445e-06 1.7310151716e-06 1.6495423895e-06
          1.7158239648e-06 9.715827413e-07 1.7523264811e-06 1.6320871077e-06 1.8024393168e-06 1.6122645898e-06
          1.8299132798e-06 8.5961178683e-07 1.712725876e-06 9.581888921e-07 1.6834039568e-06 1.7256657797e-06
          1.7533283069e-06 1.6243271604e-06 1.8826285681e-06 1.786927185e-06 1.901634594e-06 1.8418368821e-06
          1.8905064427e-06 1.7482196899e-06 1.9268623287e-06 1.5870018453e-06 1.8056760292e-06 9.4037174184e-07
          1.6069692245e-06 1.0482101005e-06 1.7708343644e-06 1.7329642509e-06 1.6535256348e-06 1.9147437231e-06
          9.4148046082e-07 1.7713182992e-06 1.9268623208e-06 1.9519423716e-06 8.8657319789e-07 1.7450828747e-06
          1.8541505495e-06 8.7753537692e-07 9.3944668885e-07 1.5354733818e-06 1.0474220131e-06 1.8177946644e-06
          8.7740017617e-07 1.6402229112e-06 1.672371072e-06 1.7424263061e-06 9.2961462688e-07 9.2012552901e-07
          1.7439268015e-06 1.8299132569e-06 1.8328235689e-06 1.9217577178e-06 1.0092140963e-06 9.4111712651e-07
          1.7019704809e-06 1.7970801694e-06 1.6689435379e-06 9.3221862749e-07 8.8868356101e-07 1.8541505556e-06
          9.2735137368e-07 1.5960188867e-06 1.0337036508e-06 1.7531923499e-06
        </DataArray>
      </PointData>
      <CellData>
      </CellData>
      <Points>
        <DataArray type="Float32" Name="Points" NumberOfComponents="3" format="ascii" RangeMin="9.7729634463e-06" RangeMax="0.00013138974913">
          1.9525481548e-05 2.3359831175e-05 5.6870777598e-07 1.989356133e-05 2.3444552426e-05 1.3518048263e-06
          1.2869632883e-05 1.6937836335e-05 1.7954457689e-06 4.9551404118e-06 8.5237734311e-06 2.0005168153e-06
          4.0745951992e-05 1.5488461941e-05 2.527848892e-06 1.3344721083e-05 1.5622419596e-05 2.5060235203e-06
          4.9446066441e-06 7.7168542703e-06 3.3929102301e-06 4.127743523e-05 1.551259993e-05 4.1641505959e-06
          3.1475035939e-05 8.2301785369e-06 5.5684558902e-06 1.7200000002e-05 5.7000002016e-06 6.1699997786e-06
          1.5069374513e-06 9.3508997452e-06 6.3136358222e-06 3.2088606531e-05 9.0794937933e-06 6.7231230787e-06
          2.0151642275e-06 1.0798133189e-05 6.9055195127e-06 1.4600000213e-05 8.9300001491e-06 7.4399999903e-06
          2.5600000299e-05 1.6800000594e-05 7.3599999268e-06 4.6400000429e-05 1.1600000107e-05 7.9499995991e-06
          1.391782007e-05 3.8696460251e-05 1.641371e-06 1.4464240849e-05 4.0252456529e-05 2.2777369395e-06
          2.9405264286e-05 4.0603219531e-05 3.5742161799e-06 4.5729517296e-05 4.1193154175e-05 4.2682754611e-06
          2.9394483136e-05 3.977743836e-05 4.9991599553e-06 3.1058960303e-05 4.8827925639e-05 4.9082041187e-06
          3.9300000935e-05 3.8400001358e-05 5.3700000535e-06 4.54716901e-05 4.1007715481e-05 5.1277006605e-06
          1.7500000467e-05 4.059999992e-05 5.6099997892e-06 3.1704643334e-05 4.9721693358e-05 6.1233045017e-06
          4.8532474466e-06 2.9487884603e-05 7.1387366916e-06 4.6470081543e-06 3.2751137041e-05 7.1534827839e-06
          5.3715457398e-06 3.3428801544e-05 7.1855674832e-06 3.6800149246e-05 4.0154001908e-05 7.7348095147e-06
          5.4101737987e-06 2.9513177651e-05 8.8533715825e-06 3.7218887883e-05 4.0250379243e-05 8.6256868599e-06
          3.6240464397e-05 6.9763722422e-05 2.2040785552e-06 3.6938010453e-05 7.0416142989e-05 2.2349681785e-06
          3.5305783967e-05 7.2243026807e-05 2.0455295271e-06 3.7530364807e-06 5.728787437e-05 3.188087021e-06
          1.5940277081e-05 6.7351335019e-05 3.7233862713e-06 3.5293964174e-05 7.1337650297e-05 3.6078201902e-06
          4.3104064389e-06 5.7313187426e-05 4.9040877457e-06 4.1226385292e-06 7.3234637966e-05 4.7608255045e-06
          1.5467949197e-05 6.7643573857e-05 5.2303689699e-06 4.7769622142e-06 7.3456023529e-05 5.3625876717e-06
          9.6699995993e-06 5.4100000852e-05 5.8999999055e-06 2.3139258701e-05 6.5421940235e-05 5.9200151554e-06
          9.2619120551e-06 6.707963621e-05 5.9044909904e-06 4.4768826228e-06 7.3262446676e-05 6.1144346546e-06
          6.6075572249e-06 6.2484454247e-05 6.5491062742e-06 2.3675102057e-05 6.3938306994e-05 6.7214623414e-06
          9.8201680885e-06 6.8669338361e-05 6.5546396399e-06 5.1299998631e-06 7.0499998401e-05 7.000000096e-06
          7.3160563261e-06 6.3465173298e-05 7.8824186858e-06 4.8925830924e-05 8.4050036094e-05 1.2134305507e-06
          4.965264452e-05 8.4729828814e-05 1.245616204e-06 9.1122392405e-06 8.3843930042e-05 1.8952194978e-06
          3.853324597e-05 8.4587882156e-05 1.6787366803e-06 5.2624009186e-06 7.8681026935e-05 2.8050601486e-06
          5.8197147155e-06 8.0268044258e-05 3.4541112655e-06 8.6159934654e-06 8.4150975454e-05 3.4785134631e-06
          3.9090173232e-05 8.4613180661e-05 3.3933717987e-06 7.1072563514e-06 8.6621112132e-05 3.180804697e-06
          4.3299998651e-05 7.6700001955e-05 3.8200000745e-06 3.9959111746e-05 9.1301699285e-05 3.8763196244e-06
          3.8478032366e-05 9.1883703135e-05 3.649372502e-06 7.4155268521e-06 8.6883708718e-05 4.6800055316e-06
          8.229217201e-06 8.6696614744e-05 4.7636390264e-06 2.5000052119e-05 8.9345339802e-05 4.5271335694e-06
          4.5613069233e-05 7.8012577433e-05 5.3197036323e-06 4.6173096052e-05 7.9549456132e-05 5.4959423323e-06
          2.9334702049e-05 7.4396884884e-05 6.1909845499e-06 4.7343139158e-05 7.6706026448e-05 6.298430435e-06
          2.5419418307e-05 8.966972382e-05 6.0852048591e-06 1.1951596207e-05 7.5987780292e-05 6.9884681579e-06
          4.7705660108e-05 9.5533519925e-05 6.6719298957e-06 2.9066499337e-05 7.420397742e-05 7.0850069278e-06
          1.2462750419e-05 7.4572504673e-05 7.7529884948e-06 4.8020458053e-05 7.7643584518e-05 7.5730613389e-06
          4.7694087698e-05 9.4647126389e-05 8.2014657892e-06 6.3458486693e-05 1.4868689505e-05 2.338779268e-06
          5.6400000176e-05 2.2800000806e-05 2.2599999738e-06 5.0623984862e-05 1.3259486877e-05 3.2055231713e-06
          6.3955805672e-05 1.3491733625e-05 3.0825997328e-06 5.0995229685e-05 1.3344935724e-05 3.9953547457e-06
          5.874659837e-05 5.3974217735e-06 4.4232137952e-06 8.0133249867e-05 1.8887885744e-05 4.2687365749e-06
          9.3605776783e-05 8.0626314229e-06 4.9062100516e-06 5.8261641243e-05 5.6974790823e-06 5.9704921114e-06
          9.3012145953e-05 1.608029379e-05 5.5347595662e-06 5.4450745665e-05 1.701655674e-05 5.5727450672e-06
          8.069017349e-05 1.8913178792e-05 5.9833719206e-06 9.3593967904e-05 7.1580620897e-06 6.4671053224e-06
          7.0900001447e-05 1.2700000298e-05 6.1400000959e-06 9.3569957244e-05 1.7668726287e-05 6.1843907133e-06
          8.7400003395e-05 3.549999974e-06 6.6600000537e-06 5.5112821428e-05 1.7933010895e-05 6.8186914177e-06
          9.3100003141e-05 2.3900000087e-05 7.4300000961e-06 5.3000290791e-05 4.8554033128e-05 2.025116828e-06
          5.7251596445e-05 3.8488717109e-05 2.5352328521e-06 5.3418727475e-05 4.8650344979e-05 2.9153441119e-06
          5.7771841966e-05 3.8512345782e-05 4.1369330575e-06 7.2800001362e-05 4.9700000091e-05 5.4199999795e-06
          8.7443069788e-05 4.9668356951e-05 5.6407748161e-06 8.859999798e-05 2.5900000765e-05 8.0899999375e-06
          7.3957613495e-05 7.3379764217e-05 1.324838081e-06 5.2226587286e-05 5.3387582739e-05 2.0382365165e-06
          9.2800000857e-05 5.4000000091e-05 2.6299999263e-06 5.2796880482e-05 5.341348151e-05 3.7940230868e-06
          7.9323843238e-05 7.0389076427e-05 3.9271776586e-06 7.4399998994e-05 7.1700000262e-05 3.7800000428e-06
          7.6600001194e-05 5.6500000937e-05 4.8699998842e-06 7.9077362898e-05 7.0211790444e-05 4.7487997108e-06
          7.5600357377e-05 5.7454049966e-05 5.2252598834e-06 8.7939028163e-05 5.1080667617e-05 6.2183762566e-06
          7.601865218e-05 5.7550325437e-05 6.115184533e-06 7.9899997218e-05 6.6799999331e-05 7.1700001172e-06
          7.462103531e-05 7.4000265158e-05 1.3542164652e-06 7.4351795774e-05 8.6187224952e-05 1.4387646843e-06
          5.0700000429e-05 7.5800002378e-05 1.5699999949e-06 7.4862538895e-05 8.4773084382e-05 2.2026738407e-06
          9.7629323136e-05 8.7893015007e-05 2.5689207632e-06 9.7371885204e-05 8.7707849161e-05 3.4270619835e-06
          8.2333033788e-05 8.9087872766e-05 3.9580868361e-06 7.1800001024e-05 9.4000002719e-05 4.5400001909e-06
          7.0917820267e-05 8.9296459919e-05 5.4013712543e-06 8.2890408521e-05 8.9113185822e-05 5.6740877881e-06
          8.6040869064e-05 7.7764096204e-05 6.4040964389e-06 8.6737636593e-05 7.8415796452e-05 6.4349515014e-06
          7.1464244684e-05 9.0852459834e-05 6.0377369664e-06 7.5350464613e-05 9.4016169896e-05 6.5522167461e-06
          6.4105406636e-05 8.9813896921e-05 7.4557951848e-06 5.3563904657e-05 9.5700270322e-05 7.0651767601e-06
          5.4416734201e-05 9.5504183264e-05 7.1528334047e-06 9.1593217803e-05 8.3592705778e-05 7.7890808825e-06
          9.2538000899e-05 8.460861136e-05 7.9171704783e-06 7.6013071521e-05 9.4933355285e-05 7.7991608123e-06
          9.2902730103e-05 8.4646664618e-05 8.8013111963e-06 6.4094347181e-05 8.8966728072e-05 8.9176373876e-06
        </DataArray>
      </Points>
      <Cells>
        <DataArray type="Int64" Name="connectivity" format="ascii" RangeMin="0" RangeMax="135">
          0 1 2 3 4 5
          6 7 8 9 10 11
          12 13 14 15 16 17
          18 19 20 21 22 23
          24 25 26 27 28 29
          30 31 32 33 34 35
          36 37 38 39 40 41
          42 43 44 45 46 47
          48 49 50 51 52 53
          54 55 56 57 58 59
          60 61 62 63 64 65
          66 67 68 69 70 71
          72 73 74 75 76 77
          78 79 80 81 82 83
          84 85 86 87 88 89
          90 91 92 93 94 95
          96 97 98 99 100 101
          102 103 104 105 106 107
          108 109 110 111 112 113
          114 115 116 117 118 119
          120 121 122 123 124 125
          126 127 128 129 130 131
          132 133 134 135
        </DataArray>
        <DataArray type="Int64" Name="offsets" format="ascii" RangeMin="1" RangeMax="136">
          1 2 3 4 5 6
          7 8 9 10 11 12
          13 14 15 16 17 18
          19 20 21 22 23 24
          25 26 27 28 29 30
          31 32 33 34 35 36
          37 38 39 40 41 42
          43 44 45 46 47 48
          49 50 51 52 53 54
          55 56 57 58 59 60
          61 62 63 64 65 66
          67 68 69 70 71 72
          73 74 75 76 77 78
          79 80 81 82 83 84
          85 86 87 88 89 90
          91 92 93 94 95 96
          97 98 99 100 101 102
          103 104 105 106 107 108
          109 110 111 112 113 114
          115 116 117 118 119 120
          121 122 123 124 125 126
          127 128 129 130 131 132
          133 134 135 136
        </DataArray>
        <DataArray type="UInt8" Name="types" format="ascii" RangeMin="1" RangeMax="1">
          1 1 1 1 1 1
          1 1 1 1 1 1
          1 1 1 1 1 1
          1 1 1 1 1 1
          1 1 1 1 1 1
          1 1 1 1 1 1
          1 1 1 1 1 1
          1 1 1 1 1 1
          1 1 1 1 1 1
          1 1 1 1 1 1
          1 1 1 1 1 1
          1 1 1 1 1 1
          1 1 1 1 1 1
          1 1 1 1 1 1
          1 1 1 1 1 1
          1 1 1 1 1 1
          1 1 1 1 1 1
          1 1 1 1 1 1
          1 1 1 1 1 1
          1 1 1 1 1 1
          1 1 1 1 1 1
          1 1 1 1 1 1
          1 1 1 1
        </DataArray>
      </Cells>
    </Piece>
  </UnstructuredGrid>
</VTKFile>
