<?xml version="1.0"?>
<VTKFile type="UnstructuredGrid" version="0.1" byte_order="LittleEndian" header_type="UInt32" compressor="vtkZLibDataCompressor">
  <UnstructuredGrid>
    <Piece NumberOfPoints="149" NumberOfCells="149">
      <PointData>
        <DataArray type="Int32" Name="id" format="ascii" RangeMin="1" RangeMax="149">
          133 75 134 19 59 50
          123 97 49 42 118 131
          15 22 44 3 93 40
          1 78 117 54 24 124
          7 119 20 109 62 106
          84 61 137 141 121 77
          32 51 60 85 81 105
          129 67 18 92 82 135
          14 26 57 12 89 145
          148 111 64 34 37 90
          46 101 86 79 35 2
          126 136 69 115 48 120
          72 39 13 99 30 113
          23 96 95 142 149 110
          43 127 56 73 33 6
          38 116 88 47 87 91
          17 41 58 102 10 146
          107 11 66 103 45 130
          36 138 125 55 25 80
          74 5 4 132 108 9
          76 52 139 140 147 68
          104 21 29 65 122 28
          8 94 83 114 63 53
          27 31 128 70 16 112
          100 71 98 143 144
        </DataArray>
        <DataArray type="Int32" Name="type" format="ascii" RangeMin="1" RangeMax="2">
          2 2 1 1 1 1
          1 1 1 1 1 1
          1 1 1 1 1 1
          1 2 1 1 1 2
          1 1 1 2 2 2
          1 2 2 2 2 2
          1 1 1 1 1 2
          1 2 1 1 1 2
          1 1 1 1 1 1
          2 2 2 1 1 1
          1 1 1 2 1 1
          1 2 2 1 1 1
          2 1 1 1 1 2
          1 1 1 2 2 1
          1 2 1 2 1 1
          1 1 1 1 1 1
          1 1 1 1 1 1
          2 1 2 1 1 1
          1 2 2 1 1 1
          2 1 1 2 2 1
          2 1 2 1 1 2
          1 1 1 2 2 1
          1 1 1 2 2 1
          1 1 2 2 1 2
          1 2 1 2 2
        </DataArray>
        <DataArray type="Float64" Name="diameter" format="ascii" RangeMin="8.2312746523e-07" RangeMax="1.9684769279e-06">
          8.8809657212e-07 9.8994020738e-07 1.5655457236e-06 1.6134763712e-06 1.6740931397e-06 1.6630959286e-06
          1.6949251749e-06 1.8448030075e-06 1.7159705528e-06 1.7875070084e-06 1.7345365477e-06 1.5239839929e-06
          1.6107005858e-06 1.725440796e-06 1.8868129481e-06 1.8247467354e-06 1.8773807148e-06 1.7433465061e-06
          1.6422884672e-06 1.002052907e-06 1.725191715e-06 1.7679696483e-06 1.9612923904e-06 9.9182439096e-07
          1.8743996823e-06 1.5701653177e-06 1.7676179133e-06 8.7617630427e-07 1.044031995e-06 1.0238424831e-06
          1.947864659e-06 8.8368737307e-07 9.267470056e-07 9.0198915762e-07 8.3063384479e-07 1.0009223556e-06
          1.8151609163e-06 1.7863228279e-06 1.6641776245e-06 1.9067908164e-06 1.9684769279e-06 1.0586811837e-06
          1.605775553e-06 9.4141567066e-07 1.8992261613e-06 1.7660119509e-06 1.9488028128e-06 9.3188137728e-07
          1.9551663752e-06 1.8760533407e-06 1.8096694847e-06 1.6390841268e-06 1.7364180563e-06 1.4865523119e-06
          8.7107808778e-07 8.7662176252e-07 1.0442385374e-06 1.7644292702e-06 1.7676178539e-06 1.9079901767e-06
          1.7717706201e-06 1.7025090146e-06 1.9478645903e-06 1.0453556956e-06 1.8743996586e-06 1.6865547744e-06
          1.6019718258e-06 9.4586391003e-07 9.0185175032e-07 1.6080943342e-06 1.7172409945e-06 1.6303185813e-06
          8.7155104485e-07 1.8823676592e-06 1.773097303e-06 1.6896438629e-06 1.7575367877e-06 1.0575452147e-06
          1.7949267033e-06 1.6717642304e-06 1.8462578187e-06 9.0216759947e-07 8.2312746523e-07 1.6514598137e-06
          1.8743996877e-06 9.3686506754e-07 1.7543633796e-06 1.04432977e-06 1.7243286222e-06 1.7676178587e-06
          1.7959528835e-06 1.6638156297e-06 1.9283965168e-06 1.8303685718e-06 1.9478645908e-06 1.8866131613e-06
          1.9364659121e-06 1.7907200724e-06 1.639084141e-06 1.6255829172e-06 1.8495732155e-06 1.4865523248e-06
          1.0233496123e-06 1.6460357158e-06 8.7233829528e-07 1.8138845254e-06 1.7750937668e-06 1.693723945e-06
          1.9612924201e-06 9.3615578872e-07 1.0239964585e-06 1.8143802189e-06 1.6535716132e-06 1.5469161142e-06
          9.6415354146e-07 1.7875070013e-06 1.8992261831e-06 9.5434764682e-07 1.0221327561e-06 1.5728017646e-06
          8.8263637438e-07 1.8619864635e-06 9.254946818e-07 1.6250049372e-06 1.4685663805e-06 9.5453324051e-07
          1.6800978169e-06 1.7130275231e-06 1.7847858456e-06 1.009419048e-06 9.9911534166e-07 1.7863228182e-06
          1.8743996612e-06 1.8773807246e-06 1.968476921e-06 8.9495794646e-07 1.0232576871e-06 1.7433465142e-06
          1.8407683819e-06 1.7095166664e-06 1.0148059823e-06 9.6720600384e-07 1.8992261902e-06 1.0077306841e-06
          1.6348191679e-06 8.7843574887e-07 1.7958136256e-06 9.0431516727e-07 8.4512283291e-07
        </DataArray>
      </PointData>
      <CellData>
      </CellData>
      <Points>
        <DataArray type="Float32" Name="Points" NumberOfComponents="3" format="ascii" RangeMin="9.7710072865e-06" RangeMax="0.00013140280194">
          1.9517014152e-05 2.3357883038e-05 5.506936418e-07 1.9902028725e-05 2.3446500563e-05 1.3698189605e-06
          1.2863576558e-05 1.6954607418e-05 1.7863865196e-06 4.955271379e-06 8.5338015197e-06 1.9832129965e-06
          4.0739774704e-05 1.5488181816e-05 2.5088288567e-06 1.3350778318e-05 1.5605648514e-05 2.5150827696e-06
          4.9444756769e-06 7.7068270912e-06 3.4102140489e-06 4.1283612518e-05 1.5512880054e-05 4.1831704038e-06
          3.1467166991e-05 8.2192846094e-06 5.553644769e-06 1.7200000002e-05 5.7000002016e-06 6.1699997786e-06
          1.5007550473e-06 9.3332946562e-06 6.3064358073e-06 3.2096475479e-05 9.0903886303e-06 6.7379341999e-06
          2.0213465177e-06 1.0815737369e-05 6.9127195275e-06 1.4600000213e-05 8.9300001491e-06 7.4399999903e-06
          2.5600000299e-05 1.6800000594e-05 7.3599999268e-06 4.6400000429e-05 1.1600000107e-05 7.9499995991e-06
          1.3911637325e-05 3.8678856072e-05 1.6341709852e-06 1.4470423594e-05 4.0270060708e-05 2.2849369543e-06
          2.9405395253e-05 4.0613249439e-05 3.5569123611e-06 4.5740773203e-05 4.1201248678e-05 4.2307556214e-06
          2.9394352168e-05 3.9767408452e-05 5.0164640015e-06 3.1051091355e-05 4.881703353e-05 4.8933929975e-06
          3.9300000935e-05 3.8400001358e-05 5.3700000535e-06 4.5460434194e-05 4.099961734e-05 5.1652205002e-06
          1.7500000467e-05 4.059999992e-05 5.6099997892e-06 3.171251592e-05 4.9732589105e-05 6.1381156229e-06
          4.8470697038e-06 2.9487604479e-05 7.1197168836e-06 4.6005216063e-06 3.2654868846e-05 6.7360497269e-06
          5.3715457398e-06 3.3428801544e-05 7.1855674832e-06 3.680012378e-05 4.014514343e-05 7.6958031059e-06
          5.4163515415e-06 2.9513459594e-05 8.8723918452e-06 3.763407949e-05 4.0154765884e-05 8.6677000581e-06
          3.6774617911e-05 4.0361032006e-05 8.6174413809e-06 4.6948011914e-06 3.2850111893e-05 7.5826428656e-06
          3.6608802475e-05 6.9645007898e-05 2.2436456675e-06 3.6967208871e-05 7.0443456934e-05 2.2362612526e-06
          3.5305914935e-05 7.2253053077e-05 2.0282257083e-06 3.7406809952e-06 5.7287314121e-05 3.1500471778e-06
          1.5946157873e-05 6.7347697041e-05 3.7046202124e-06 3.5293833207e-05 7.1327616752e-05 3.625124009e-06
          4.3227619244e-06 5.7313751313e-05 4.9421278163e-06 4.0933950913e-06 7.3224611697e-05 4.7354428716e-06
          1.5462068404e-05 6.7647219112e-05 5.2491350289e-06 4.8256133596e-06 7.3477574915e-05 5.3505200412e-06
          9.6699995993e-06 5.4100000852e-05 5.8999999055e-06 2.3133201466e-05 6.5438704041e-05 5.9109561334e-06
          9.2495474746e-06 6.7044427851e-05 5.8900909607e-06 4.4544026423e-06 7.3248171248e-05 6.1681948864e-06
          6.5996869125e-06 6.2473562139e-05 6.534295153e-06 2.3681157472e-05 6.3921535912e-05 6.7305218181e-06
          9.8325335784e-06 6.870454672e-05 6.5690401243e-06 5.3388653214e-06 7.066156104e-05 7.7759959822e-06
          7.3239266385e-06 6.3476072683e-05 7.897229807e-06 4.9405716709e-06 7.0353475166e-05 6.2962176344e-06
          3.5794357245e-05 6.9832276495e-05 2.1599346383e-06 4.8879377573e-05 8.3953840658e-05 7.9631860217e-07
          4.965264452e-05 8.4729828814e-05 1.245616204e-06 9.1181209427e-06 8.3840292064e-05 1.8764535525e-06
          3.8527068682e-05 8.458760567e-05 1.6597168724e-06 5.2562181736e-06 7.8663426393e-05 2.7978601338e-06
          5.8258970057e-06 8.0285644799e-05 3.4613112803e-06 8.6101117631e-06 8.4154613432e-05 3.497279522e-06
          3.909635052e-05 8.4613457147e-05 3.4123916066e-06 7.1072563514e-06 8.6621112132e-05 3.180804697e-06
          4.3299998651e-05 7.6700001955e-05 3.8200000745e-06 3.9977541746e-05 9.1294459708e-05 3.8791431507e-06
          3.8459606003e-05 9.1890942713e-05 3.6465487483e-06 7.3767378126e-06 8.6892621766e-05 4.6760183068e-06
          8.2680062405e-06 8.668769442e-05 4.7676257964e-06 2.4994955311e-05 8.9341396233e-05 4.5081997087e-06
          4.5606262574e-05 7.7993892774e-05 5.3175613175e-06 4.6179902711e-05 7.9568140791e-05 5.4980851019e-06
          2.8917223972e-05 7.4434523412e-05 6.1732207541e-06 4.733527021e-05 7.6695134339e-05 6.2836193138e-06
          2.5424515115e-05 8.9673667389e-05 6.1041387198e-06 1.1945538972e-05 7.6004551374e-05 6.9794086812e-06
          4.7705791076e-05 9.5543546195e-05 6.6546258495e-06 2.9055243431e-05 7.4195886555e-05 7.1225267675e-06
          1.2468806744e-05 7.455573359e-05 7.7620479715e-06 4.8028327001e-05 7.7654476627e-05 7.5878724601e-06
          4.7693956731e-05 9.4637100119e-05 8.2187698354e-06 4.8973586672e-05 8.4148938186e-05 1.6422602584e-06
          2.9750872272e-05 7.4377079727e-05 6.1348050622e-06 6.3452433096e-05 1.4885459677e-05 2.3297200187e-06
          5.6400000176e-05 2.2800000806e-05 2.2599999738e-06 5.0607050071e-05 1.3255588783e-05 3.169494903e-06
          6.3961859269e-05 1.3474963453e-05 3.0916589822e-06 5.1012164477e-05 1.3348833818e-05 4.0313830141e-06
          5.8752480982e-05 5.3937824305e-06 4.4044477363e-06 8.0127072579e-05 1.8887603801e-05 4.2497167669e-06
          9.360590775e-05 8.0726595115e-06 4.8889060054e-06 5.8255758631e-05 5.7011184253e-06 5.9892581703e-06
          9.3005961389e-05 1.6062687791e-05 5.5275590967e-06 5.4442876717e-05 1.7005660993e-05 5.557933946e-06
          8.0696350778e-05 1.8913458916e-05 6.0023917285e-06 9.3593836937e-05 7.1480340011e-06 6.4844093686e-06
          7.0900001447e-05 1.2700000298e-05 6.1400000959e-06 9.3576134532e-05 1.7686330466e-05 6.1915907281e-06
          8.7608867034e-05 3.7115589748e-06 7.4359959399e-06 5.5120690376e-05 1.7943906641e-05 6.8335025389e-06
          9.3100003141e-05 2.3900000087e-05 7.4300000961e-06 8.7210573838e-05 3.4034756027e-06 5.956217592e-06
          5.2996041632e-05 4.8563102609e-05 1.9863921352e-06 5.7245419157e-05 3.8488436985e-05 2.5162130441e-06
          5.3741881857e-05 4.8952759244e-05 2.9291581995e-06 5.7778019254e-05 3.8512625906e-05 4.1559528654e-06
          7.2800001362e-05 4.9700000091e-05 5.4199999795e-06 8.7436885224e-05 4.9650749133e-05 5.6335748013e-06
          8.859999798e-05 2.5900000765e-05 8.0899999375e-06 5.3088893765e-05 4.8331821745e-05 2.9303682823e-06
          7.3928415077e-05 7.3352457548e-05 1.3235451206e-06 5.2150233387e-05 5.3338349971e-05 1.8840172515e-06
          9.2474583653e-05 5.3549552831e-05 2.0176050839e-06 5.2880477597e-05 5.385149052e-05 3.2842299333e-06
          7.9335099144e-05 7.0397174568e-05 3.8896578189e-06 7.4399998994e-05 7.1700000262e-05 3.7800000428e-06
          7.6614203863e-05 5.6486602261e-05 4.8656602303e-06 7.9066106991e-05 7.0203699579e-05 4.7863200052e-06
          7.5571428169e-05 5.7467888837e-05 5.173279078e-06 8.7945212726e-05 5.1098271797e-05 6.2255762714e-06
          7.6433301729e-05 5.7454839407e-05 6.1571608967e-06 7.9899997218e-05 6.6799999331e-05 7.1700001172e-06
          7.557473873e-05 5.7660512539e-05 6.105301054e-06 5.2791889175e-05 5.2963907365e-05 4.572560556e-06
          9.3089009169e-05 5.4400050431e-05 3.1738788948e-06 7.4650233728e-05 7.4027579103e-05 1.3555094256e-06
          7.4345734902e-05 8.6203996034e-05 1.4297054349e-06 5.0700000429e-05 7.5800002378e-05 1.5699999949e-06
          7.4868599768e-05 8.4756313299e-05 2.21173309e-06 9.7640579042e-05 8.7901113147e-05 2.5314006962e-06
          9.7360629297e-05 8.7699758296e-05 3.4645820506e-06 8.2320679212e-05 8.9087312517e-05 3.9200472202e-06
          7.1800001024e-05 9.4000002719e-05 4.5400001909e-06 7.0911635703e-05 8.9278852101e-05 5.3941707847e-06
          8.2902763097e-05 8.9113753347e-05 5.7121278587e-06 8.5560917796e-05 7.7784228779e-05 6.4250489231e-06
          8.678528684e-05 7.8502118413e-05 6.4408191065e-06 7.1470421972e-05 9.0870060376e-05 6.0449369812e-06
          7.5342592027e-05 9.4005270512e-05 6.5374056248e-06 6.4105537604e-05 8.982392319e-05 7.4384911386e-06
          5.3525112889e-05 9.5709190646e-05 7.0611895353e-06 5.4455522331e-05 9.549526294e-05 7.1568201747e-06
          9.1553542006e-05 8.3547834947e-05 7.786507922e-06 9.2462119937e-05 8.4659797722e-05 7.7512813732e-06
          7.6020936831e-05 9.494425467e-05 7.8139719335e-06 9.2970549304e-05 8.451215399e-05 8.5142937678e-06
          6.4094216214e-05 8.8956701802e-05 8.9349414338e-06 9.2964553914e-05 8.4777995653e-05 9.3663093139e-06
          8.641713066e-05 7.7651071479e-05 6.3789193518e-06
        </DataArray>
      </Points>
      <Cells>
        <DataArray type="Int64" Name="connectivity" format="ascii" RangeMin="0" RangeMax="148">
          0 1 2 3 4 5
          6 7 8 9 10 11
          12 13 14 15 16 17
          18 19 20 21 22 23
          24 25 26 27 28 29
          30 31 32 33 34 35
          36 37 38 39 40 41
          42 43 44 45 46 47
          48 49 50 51 52 53
          54 55 56 57 58 59
          60 61 62 63 64 65
          66 67 68 69 70 71
          72 73 74 75 76 77
          78 79 80 81 82 83
          84 85 86 87 88 89
          90 91 92 93 94 95
          96 97 98 99 100 101
          102 103 104 105 106 107
          108 109 110 111 112 113
          114 115 116 117 118 119
          120 121 122 123 124 125
          126 127 128 129 130 131
          132 133 134 135 136 137
          138 139 140 141 142 143
          144 145 146 147 148
        </DataArray>
        <DataArray type="Int64" Name="offsets" format="ascii" RangeMin="1" RangeMax="149">
          1 2 3 4 5 6
          7 8 9 10 11 12
          13 14 15 16 17 18
          19 20 21 22 23 24
          25 26 27 28 29 30
          31 32 33 34 35 36
          37 38 39 40 41 42
          43 44 45 46 47 48
          49 50 51 52 53 54
          55 56 57 58 59 60
          61 62 63 64 65 66
          67 68 69 70 71 72
          73 74 75 76 77 78
          79 80 81 82 83 84
          85 86 87 88 89 90
          91 92 93 94 95 96
          97 98 99 100 101 102
          103 104 105 106 107 108
          109 110 111 112 113 114
          115 116 117 118 119 120
          121 122 123 124 125 126
          127 128 129 130 131 132
          133 134 135 136 137 138
          139 140 141 142 143 144
          145 146 147 148 149
        </DataArray>
        <DataArray type="UInt8" Name="types" format="ascii" RangeMin="1" RangeMax="1">
          1 1 1 1 1 1
          1 1 1 1 1 1
          1 1 1 1 1 1
          1 1 1 1 1 1
          1 1 1 1 1 1
          1 1 1 1 1 1
          1 1 1 1 1 1
          1 1 1 1 1 1
          1 1 1 1 1 1
          1 1 1 1 1 1
          1 1 1 1 1 1
          1 1 1 1 1 1
          1 1 1 1 1 1
          1 1 1 1 1 1
          1 1 1 1 1 1
          1 1 1 1 1 1
          1 1 1 1 1 1
          1 1 1 1 1 1
          1 1 1 1 1 1
          1 1 1 1 1 1
          1 1 1 1 1 1
          1 1 1 1 1 1
          1 1 1 1 1 1
          1 1 1 1 1 1
          1 1 1 1 1
        </DataArray>
      </Cells>
    </Piece>
  </UnstructuredGrid>
</VTKFile>
