 NUFEB Simulation

     78 atoms 
     2 atom types 
     4 nutrients 

  0.0e-4   1.00e-04  xlo xhi 
  0.0e-4   1.00e-04  ylo yhi 
  0.0e-4   1.00e-05  zlo zhi 

 Atoms 

     1 1 1.71e-06  370 2.94e-05 4.02e-05 4.27e-06 1.71e-06 
     2 1 1.67e-06  370 3.92e-05 9.16e-05 3.76e-06 1.67e-06 
     3 1 1.47e-06  370 4.64e-05 1.16e-05 7.95e-06 1.47e-06 
     4 1 1.53e-06  370 7.66e-05 5.65e-05 4.87e-06 1.53e-06 
     5 1 1.44e-06  370 7.44e-05 7.17e-05 3.78e-06 1.44e-06 
     6 1 1.89e-06  370 8.04e-05 1.89e-05 5.09e-06 1.89e-06 
     7 1 1.51e-06  370 1.75e-05 4.06e-05 5.61e-06 1.51e-06 
     8 1 1.51e-06  370 7.18e-05 9.40e-05 4.54e-06 1.51e-06 
     9 1 1.66e-06  370 8.77e-05 5.04e-05 5.94e-06 1.66e-06 
     10 1 1.49e-06  370 9.31e-05 2.39e-05 7.43e-06 1.49e-06 
     11 1 1.76e-06  370 5.75e-05 3.85e-05 3.30e-06 1.76e-06 
     12 1 1.59e-06  370 5.13e-06 7.05e-05 7.00e-06 1.59e-06 
     13 1 1.72e-06  370 2.52e-05 8.95e-05 5.27e-06 1.72e-06 
     14 1 1.88e-06  370 6.98e-06 6.30e-05 7.25e-06 1.88e-06 
     15 1 1.70e-06  370 1.77e-06 1.01e-05 6.62e-06 1.70e-06 
     16 1 1.53e-06  370 9.16e-05 8.36e-05 7.79e-06 1.53e-06 
     17 1 1.56e-06  370 7.09e-05 1.27e-05 6.14e-06 1.56e-06 
     18 1 1.53e-06  370 9.67e-06 5.41e-05 5.90e-06 1.53e-06 
     19 1 1.68e-06  370 4.95e-06 8.13e-06 2.68e-06 1.68e-06 
     20 1 1.89e-06  370 5.12e-06 2.95e-05 7.96e-06 1.89e-06 
     21 1 1.38e-06  370 5.07e-05 7.58e-05 1.57e-06 1.38e-06 
     22 1 1.39e-06  370 1.46e-05 8.93e-06 7.44e-06 1.39e-06 
     23 1 1.77e-06  370 1.22e-05 7.53e-05 7.36e-06 1.77e-06 
     24 1 1.58e-06  370 3.93e-05 3.84e-05 5.37e-06 1.58e-06 
     25 1 1.59e-06  370 9.28e-05 5.40e-05 2.63e-06 1.59e-06 
     26 1 1.85e-06  370 2.34e-05 6.47e-05 6.31e-06 1.85e-06 
     27 1 1.77e-06  370 7.57e-05 9.45e-05 7.21e-06 1.77e-06 
     28 1 1.91e-06  370 8.26e-05 8.91e-05 4.78e-06 1.91e-06 
     29 1 1.76e-06  370 7.46e-05 8.55e-05 1.81e-06 1.76e-06 
     30 1 1.83e-06  370 4.77e-05 9.51e-05 7.42e-06 1.83e-06 
     31 1 1.78e-06  370 6.41e-05 8.94e-05 8.17e-06 1.78e-06 
     32 1 1.89e-06  370 3.53e-05 7.18e-05 2.81e-06 1.89e-06 
     33 1 1.72e-06  370 5.85e-05 5.55e-06 5.21e-06 1.72e-06 
     34 1 1.76e-06  370 8.86e-06 8.40e-05 2.70e-06 1.76e-06 
     35 1 1.51e-06  370 4.33e-05 7.67e-05 3.82e-06 1.51e-06 
     36 1 1.58e-06  370 8.86e-05 2.59e-05 8.09e-06 1.58e-06 
     37 1 1.89e-06  370 3.88e-05 8.46e-05 2.50e-06 1.89e-06 
     38 1 1.87e-06  370 9.36e-05 7.62e-06 5.67e-06 1.87e-06 
     39 1 1.81e-06  370 4.77e-05 7.72e-05 6.97e-06 1.81e-06 
     40 1 1.84e-06  370 1.42e-05 3.95e-05 1.97e-06 1.84e-06 
     41 1 1.89e-06  370 9.33e-05 1.69e-05 5.87e-06 1.89e-06 
     42 1 1.44e-06  370 1.72e-05 5.70e-06 6.17e-06 1.44e-06 
     43 1 1.51e-06  370 5.64e-05 2.28e-05 2.26e-06 1.51e-06 
     44 1 1.52e-06  370 2.56e-05 1.68e-05 7.36e-06 1.52e-06 
     45 1 1.43e-06  370 7.28e-05 4.97e-05 5.42e-06 1.43e-06 
     46 1 1.87e-06  370 5.55e-06 7.95e-05 3.14e-06 1.87e-06 
     47 1 1.76e-06  370 5.48e-05 1.75e-05 6.23e-06 1.76e-06 
     48 1 1.70e-06  370 4.59e-05 7.88e-05 5.41e-06 1.70e-06 
     49 1 1.65e-06  370 3.18e-05 8.68e-06 6.18e-06 1.65e-06 
     50 1 1.64e-06  370 1.31e-05 1.63e-05 2.14e-06 1.64e-06 
     51 1 1.91e-06  370 4.02e-06 5.73e-05 4.01e-06 1.91e-06 
     52 1 1.50e-06  370 7.99e-05 6.68e-05 7.17e-06 1.50e-06 
     53 1 1.84e-06  370 7.12e-05 9.01e-05 5.73e-06 1.84e-06 
     54 1 1.70e-06  370 3.14e-05 4.93e-05 5.55e-06 1.70e-06 
     55 1 1.94e-06  370 5.25e-05 5.34e-05 2.88e-06 1.94e-06 
     56 1 1.73e-06  370 6.37e-05 1.42e-05 2.70e-06 1.73e-06 
     57 1 1.91e-06  370 9.55e-06 6.79e-05 6.24e-06 1.91e-06 
     58 1 1.59e-06  370 8.74e-05 3.55e-06 6.66e-06 1.59e-06 
     59 1 1.79e-06  370 4.10e-05 1.55e-05 3.31e-06 1.79e-06 
     60 1 1.66e-06  370 1.57e-05 6.75e-05 4.49e-06 1.66e-06 
     61 2 1.03e-06  236 3.70e-05 4.02e-05 8.16e-06 1.03e-06 
     62 2 1.02e-06  236 5.02e-06 3.31e-05 7.17e-06 1.02e-06 
     63 2 1.01e-06  236 8.64e-05 7.81e-05 6.42e-06 1.01e-06 
     64 2 1.01e-06  236 4.93e-05 8.44e-05 1.23e-06 1.01e-06 
     65 2 9.63e-07  236 9.75e-05 8.78e-05 3.00e-06 9.63e-07 
     66 2 1.03e-06  236 5.32e-05 4.86e-05 2.45e-06 1.03e-06 
     67 2 1.02e-06  236 4.38e-06 7.33e-05 5.24e-06 1.02e-06 
     68 2 9.40e-07  236 7.43e-05 7.37e-05 1.34e-06 9.40e-07 
     69 2 1.04e-06  236 7.45e-06 8.67e-05 3.91e-06 1.04e-06 
     70 2 9.33e-07  236 5.40e-05 9.56e-05 7.11e-06 9.33e-07 
     71 2 1.02e-06  236 9.27e-05 8.46e-05 8.37e-06 1.02e-06 
     72 2 1.00e-06  236 2.92e-05 7.43e-05 6.64e-06 1.00e-06 
     73 2 9.32e-07  236 5.08e-05 1.33e-05 3.58e-06 9.32e-07 
     74 2 9.12e-07  236 7.92e-05 7.03e-05 4.34e-06 9.12e-07 
     75 2 8.93e-07  236 1.97e-05 2.34e-05 9.40e-07 8.93e-07 
     76 2 1.03e-06  236 7.58e-05 5.75e-05 5.65e-06 1.03e-06 
     77 2 9.73e-07  236 3.66e-05 7.01e-05 2.22e-06 9.73e-07 
     78 2 9.50e-07  236 4.56e-05 4.11e-05 4.70e-06 9.50e-07 

 Nutrients 

     1 sub g nn nn nn 1.00e-01 1.00e-01 
     2 o2 l nn nn nd 9.00e-03 9.00e-03 
     3 suc l nn nn nn 3.42e-20 3.42e-20 
     4 co2 l nn nn nd 7e-2 7e-2 

 Type Name 

     1 cyano  
     2 ecw  

 Diffusion Coeffs 

     sub 0 
     o2 2.3e-09 
     suc 5.2e-10 
     co2 1.9e-09 

 Growth Rate 

     cyano 1.67e-05 
     ecw 0.00027 

 Ks 

     cyano 0.00035 0.0002 0.01 0.000138 
     ecw 0 0.001 3.6 0.05 

 Yield 

     cyano 0.55 
     ecw 0.43 

 Maintenance 

     cyano 0 
     ecw 9.5e-07 

 Decay 

     cyano 0 
     ecw 2e-05 



