<?xml version="1.0"?>
<VTKFile type="UnstructuredGrid" version="0.1" byte_order="LittleEndian" header_type="UInt32" compressor="vtkZLibDataCompressor">
  <UnstructuredGrid>
    <Piece NumberOfPoints="80" NumberOfCells="80">
      <PointData>
        <DataArray type="Int32" Name="id" format="ascii" RangeMin="1" RangeMax="80">
          75 50 19 59 42 49
          15 22 44 3 40 1
          78 24 7 54 62 20
          61 77 32 51 60 67
          18 26 57 12 14 64
          34 37 46 35 69 2
          48 13 72 39 23 30
          79 43 56 73 33 6
          38 41 17 47 58 10
          66 11 45 36 68 55
          25 5 74 4 9 76
          52 80 21 29 65 28
          8 53 63 27 70 16
          71 31
        </DataArray>
        <DataArray type="Int32" Name="type" format="ascii" RangeMin="1" RangeMax="2">
          2 1 1 1 1 1
          1 1 1 1 1 1
          2 1 1 1 2 1
          2 2 1 1 1 2
          1 1 1 1 1 2
          1 1 1 1 2 1
          1 1 2 1 1 1
          2 1 1 2 1 1
          1 1 1 1 1 1
          2 1 1 1 2 1
          1 1 2 1 1 2
          1 1 1 1 2 1
          1 1 2 1 2 1
          2 1
        </DataArray>
        <DataArray type="Float64" Name="diameter" format="ascii" RangeMin="7.5924715273e-07" RangeMax="1.9564333696e-06">
          8.7050451064e-07 1.6798694937e-06 1.7208419189e-06 1.8335160917e-06 1.475007363e-06 1.6901126017e-06
          1.7413281317e-06 1.4237918298e-06 1.5569522161e-06 1.5057366829e-06 1.8847316207e-06 1.75157124e-06
          9.2551186339e-07 1.6184108551e-06 1.546709108e-06 1.7413281336e-06 9.9465802307e-07 1.9359471581e-06
          1.0036245949e-06 9.4882177992e-07 1.9359471559e-06 1.9564333684e-06 1.7003557062e-06 9.9587441611e-07
          1.5671953207e-06 1.8949747319e-06 1.9564333691e-06 1.6286539608e-06 1.9257040497e-06 9.8506980857e-07
          1.8027867708e-06 1.9359471548e-06 1.9154609414e-06 1.5467091062e-06 8.4631475707e-07 1.7105988122e-06
          1.7413281312e-06 1.7618143467e-06 9.7541634129e-07 1.8540023046e-06 1.8130298792e-06 1.8744885189e-06
          7.5924715273e-07 1.5467091083e-06 1.7720574522e-06 9.0832179837e-07 1.7618143465e-06 1.9359471572e-06
          1.9154609436e-06 1.9359471566e-06 1.5979246423e-06 1.8027867732e-06 1.6286539617e-06 1.5262228958e-06
          1.0033583434e-06 1.8027867724e-06 1.4647642564e-06 1.6184108571e-06 9.1602329339e-07 1.4971825503e-06
          1.6286539611e-06 1.4750073625e-06 8.8859148439e-07 1.5671953222e-06 1.7003557074e-06 1.0032284115e-06
          1.5364660029e-06 1.6498525755e-06 1.4135487211e-06 1.8027867688e-06 9.3831246046e-07 1.9564333696e-06
          1.5467091054e-06 1.8847316219e-06 9.8415651508e-07 1.8130298789e-06 9.1012869368e-07 1.5671953227e-06
          9.9389122654e-07 1.823272989e-06
        </DataArray>
      </PointData>
      <CellData>
      </CellData>
      <Points>
        <DataArray type="Float32" Name="Points" NumberOfComponents="3" format="ascii" RangeMin="9.888468375e-06" RangeMax="0.00013124058025">
          1.9700000848e-05 2.3399999918e-05 9.4000000672e-07 1.3099999705e-05 1.6300000425e-05 2.140000106e-06
          4.9499999477e-06 8.130000424e-06 2.6800000796e-06 4.0999999328e-05 1.549999979e-05 3.310000011e-06
          1.7200000002e-05 5.7000002016e-06 6.1699997786e-06 3.1799998396e-05 8.6800000645e-06 6.1800001276e-06
          1.7700000399e-06 1.0099999599e-05 6.6200000219e-06 1.4600000213e-05 8.9300001491e-06 7.4399999903e-06
          2.5600000299e-05 1.6800000594e-05 7.3599999268e-06 4.6400000429e-05 1.1600000107e-05 7.9499995991e-06
          1.4199999896e-05 3.949999882e-05 1.9700000848e-06 2.940000013e-05 4.0200000512e-05 4.269999863e-06
          4.5600001613e-05 4.110000009e-05 4.6999998631e-06 3.9300000935e-05 3.8400001358e-05 5.3700000535e-06
          1.7500000467e-05 4.059999992e-05 5.6099997892e-06 3.1399998988e-05 4.9300000683e-05 5.5499999689e-06
          5.0200001169e-06 3.3100001019e-05 7.1700001172e-06 5.1199999689e-06 2.9500000892e-05 7.9600004028e-06
          3.7000001612e-05 4.0200000512e-05 8.1600001067e-06 3.6599998566e-05 7.0100002631e-05 2.2199999421e-06
          3.5299999581e-05 7.1800001024e-05 2.8100000691e-06 4.0199997784e-06 5.7299999753e-05 4.0099998841e-06
          1.5699999494e-05 6.7499997385e-05 4.4899998102e-06 4.380000064e-06 7.3299997894e-05 5.2400000641e-06
          9.6699995993e-06 5.4100000852e-05 5.8999999055e-06 2.3399999918e-05 6.4699997893e-05 6.3100001171e-06
          9.5499999588e-06 6.7900000431e-05 6.2399999479e-06 5.1299998631e-06 7.0499998401e-05 7.000000096e-06
          6.9799998528e-06 6.29999995e-05 7.2500001806e-06 4.9300000683e-05 8.4400002379e-05 1.2299999526e-06
          8.8599999799e-06 8.3999999333e-05 2.7000000955e-06 3.8800000766e-05 8.4599996626e-05 2.4999999368e-06
          5.5499999689e-06 7.9500001448e-05 3.1399999898e-06 4.3299998651e-05 7.6700001955e-05 3.8200000745e-06
          7.8320481407e-06 8.6787935288e-05 4.7228168114e-06 3.9200000174e-05 9.1599998996e-05 3.7600000269e-06
          4.5900000259e-05 7.8800003394e-05 5.4100000852e-06 2.5200000891e-05 8.9499997557e-05 5.2700002016e-06
          2.9200000426e-05 7.4299998232e-05 6.6399998104e-06 4.7699999413e-05 7.7199998486e-05 6.9699999585e-06
          1.2200000128e-05 7.5299998571e-05 7.3599999268e-06 4.7699999413e-05 9.5099996543e-05 7.4200002018e-06
          7.1072563514e-06 8.6621112132e-05 3.180804697e-06 5.6400000176e-05 2.2800000806e-05 2.2599999738e-06
          6.3699997554e-05 1.4199999896e-05 2.7000000955e-06 5.0800001191e-05 1.3300000319e-05 3.5800001115e-06
          5.8500001614e-05 5.5499999689e-06 5.2099999266e-06 8.0400001025e-05 1.8900000214e-05 5.0899998314e-06
          9.3599999673e-05 7.6199999057e-06 5.6700000641e-06 9.3299997388e-05 1.6899999537e-05 5.8700002228e-06
          7.0900001447e-05 1.2700000298e-05 6.1400000959e-06 5.4799998907e-05 1.7500000467e-05 6.2300000536e-06
          8.7400003395e-05 3.549999974e-06 6.6600000537e-06 9.3100003141e-05 2.3900000087e-05 7.4300000961e-06
          5.3200001275e-05 4.8599998991e-05 2.4500000109e-06 5.7500001276e-05 3.8499998482e-05 3.2999998894e-06
          7.2800001362e-05 4.9700000091e-05 5.4199999795e-06 8.859999798e-05 2.5900000765e-05 8.0899999375e-06
          7.4299998232e-05 7.3700000939e-05 1.3400000398e-06 5.226983194e-05 5.3389547247e-05 2.1713756269e-06
          9.2800000857e-05 5.4000000091e-05 2.6299999263e-06 7.4399998994e-05 7.1700000262e-05 3.7800000428e-06
          7.9199999163e-05 7.0299996878e-05 4.3400000322e-06 7.6600001194e-05 5.6500000937e-05 4.8699998842e-06
          8.7699998403e-05 5.0400001783e-05 5.9399999373e-06 7.5800002378e-05 5.7500001276e-05 5.6499998209e-06
          7.9899997218e-05 6.6799999331e-05 7.1700001172e-06 5.2753635828e-05 5.3411520639e-05 3.660883749e-06
          5.0700000429e-05 7.5800002378e-05 1.5699999949e-06 7.4600000517e-05 8.5500003479e-05 1.8099999579e-06
          9.7500000265e-05 8.7799999164e-05 3.0000001061e-06 8.2600003225e-05 8.9100001787e-05 4.7799999265e-06
          7.1800001024e-05 9.4000002719e-05 4.5400001909e-06 7.1199996455e-05 9.0100002126e-05 5.7299998844e-06
          8.6400003056e-05 7.8099998063e-05 6.4199998633e-06 7.5700001616e-05 9.449999925e-05 7.2100001489e-06
          5.4000000091e-05 9.560000035e-05 7.1099998422e-06 9.1599998996e-05 8.3600003563e-05 7.7900003816e-06
          9.2700000096e-05 8.4599996626e-05 8.3699997049e-06 6.41000006e-05 8.9399996796e-05 8.170000001e-06
        </DataArray>
      </Points>
      <Cells>
        <DataArray type="Int64" Name="connectivity" format="ascii" RangeMin="0" RangeMax="79">
          0 1 2 3 4 5
          6 7 8 9 10 11
          12 13 14 15 16 17
          18 19 20 21 22 23
          24 25 26 27 28 29
          30 31 32 33 34 35
          36 37 38 39 40 41
          42 43 44 45 46 47
          48 49 50 51 52 53
          54 55 56 57 58 59
          60 61 62 63 64 65
          66 67 68 69 70 71
          72 73 74 75 76 77
          78 79
        </DataArray>
        <DataArray type="Int64" Name="offsets" format="ascii" RangeMin="1" RangeMax="80">
          1 2 3 4 5 6
          7 8 9 10 11 12
          13 14 15 16 17 18
          19 20 21 22 23 24
          25 26 27 28 29 30
          31 32 33 34 35 36
          37 38 39 40 41 42
          43 44 45 46 47 48
          49 50 51 52 53 54
          55 56 57 58 59 60
          61 62 63 64 65 66
          67 68 69 70 71 72
          73 74 75 76 77 78
          79 80
        </DataArray>
        <DataArray type="UInt8" Name="types" format="ascii" RangeMin="1" RangeMax="1">
          1 1 1 1 1 1
          1 1 1 1 1 1
          1 1 1 1 1 1
          1 1 1 1 1 1
          1 1 1 1 1 1
          1 1 1 1 1 1
          1 1 1 1 1 1
          1 1 1 1 1 1
          1 1 1 1 1 1
          1 1 1 1 1 1
          1 1 1 1 1 1
          1 1 1 1 1 1
          1 1 1 1 1 1
          1 1
        </DataArray>
      </Cells>
    </Piece>
  </UnstructuredGrid>
</VTKFile>
