<?xml version="1.0"?>
<VTKFile type="UnstructuredGrid" version="0.1" byte_order="LittleEndian" header_type="UInt32" compressor="vtkZLibDataCompressor">
  <UnstructuredGrid>
    <Piece NumberOfPoints="143" NumberOfCells="143">
      <PointData>
        <DataArray type="Int32" Name="id" format="ascii" RangeMin="1" RangeMax="143">
          133 75 134 19 59 50
          123 97 49 42 118 131
          15 22 44 3 93 40
          1 78 117 54 24 124
          7 119 20 109 62 106
          84 61 137 141 121 77
          32 51 60 85 81 105
          129 67 18 92 82 135
          14 26 57 12 89 111
          64 34 37 90 46 101
          86 79 35 2 126 136
          69 115 48 120 72 39
          13 99 30 113 23 96
          95 142 110 43 127 56
          73 33 6 38 116 88
          47 87 91 17 41 58
          102 10 107 11 66 103
          45 130 36 138 125 55
          25 80 74 5 4 132
          108 9 76 52 139 140
          68 104 21 29 65 122
          28 8 94 83 114 63
          53 27 31 128 70 16
          112 100 71 98 143
        </DataArray>
        <DataArray type="Int32" Name="type" format="ascii" RangeMin="1" RangeMax="2">
          2 2 1 1 1 1
          1 1 1 1 1 1
          1 1 1 1 1 1
          1 2 1 1 1 2
          1 1 1 2 2 2
          1 2 2 2 2 2
          1 1 1 1 1 2
          1 2 1 1 1 2
          1 1 1 1 1 2
          2 1 1 1 1 1
          1 2 1 1 1 2
          2 1 1 1 2 1
          1 1 1 2 1 1
          1 2 1 1 2 1
          2 1 1 1 1 1
          1 1 1 1 1 1
          1 1 2 1 2 1
          1 1 1 2 2 1
          1 1 2 1 1 2
          2 1 2 1 2 1
          2 1 1 1 2 2
          1 1 1 1 2 2
          1 1 1 2 2 1
          2 1 2 1 2
        </DataArray>
        <DataArray type="Float64" Name="diameter" format="ascii" RangeMin="8.2804507572e-07" RangeMax="1.9454647397e-06">
          8.4317971242e-07 9.3987244808e-07 1.5431450121e-06 1.5903898426e-06 1.650139271e-06 1.6392994136e-06
          1.6706732303e-06 1.8184065263e-06 1.6914174769e-06 1.7619303487e-06 1.709717821e-06 1.5021779679e-06
          1.5876537722e-06 1.7007522144e-06 1.8598153633e-06 1.7986372287e-06 1.8505180958e-06 1.7184017221e-06
          1.6187896768e-06 9.5172395307e-07 1.7005066981e-06 1.742672541e-06 1.9332291131e-06 9.4200917291e-07
          1.8475797155e-06 1.5476985051e-06 1.7423258385e-06 8.3139327768e-07 9.9066954687e-07 9.7197278366e-07
          1.9199935113e-06 8.3893737711e-07 8.7981646656e-07 8.5588678732e-07 1.0176668403e-06 9.4936361391e-07
          1.7891885724e-06 1.7607631161e-06 1.6403656336e-06 1.8795073808e-06 1.9403108535e-06 1.0020711193e-06
          1.582799211e-06 8.9107605707e-07 1.8720509638e-06 1.7407428558e-06 1.9209182469e-06 8.8202119338e-07
          1.9271907585e-06 1.8492097114e-06 1.7837757142e-06 1.945464725e-06 1.7115724131e-06 8.3099943083e-07
          9.9012582638e-07 1.7391828245e-06 1.7423257854e-06 1.8806895817e-06 1.7464191301e-06 1.6781485563e-06
          1.9199934499e-06 9.9162271898e-07 1.8475796941e-06 1.6624226008e-06 1.5790499126e-06 8.9730602846e-07
          8.5557892376e-07 1.5850848125e-06 1.6926697437e-06 1.6069910647e-06 1.0140784986e-06 1.8554336832e-06
          1.7477268259e-06 1.6654674849e-06 1.7323889593e-06 1.0037272306e-06 1.7692438795e-06 1.6478436851e-06
          1.8198405184e-06 8.554170412e-07 1.6278297955e-06 1.8475797203e-06 8.884892032e-07 1.7292609598e-06
          9.9038790048e-07 1.6996559583e-06 1.7423257858e-06 1.7702553771e-06 1.6400088198e-06 1.9008039341e-06
          1.8041786268e-06 1.9199934467e-06 1.8596184363e-06 1.9087578653e-06 1.7650974401e-06 1.9454647397e-06
          1.602323159e-06 1.823108478e-06 9.7138296421e-07 1.6224833079e-06 8.2804507572e-07 1.7879304426e-06
          1.7496947225e-06 1.6694891861e-06 1.9332291397e-06 8.8862221817e-07 9.7233177425e-07 1.788419046e-06
          1.9454647312e-06 1.5247819664e-06 9.1558289169e-07 1.7619303422e-06 1.8720509833e-06 9.0625715088e-07
          9.7034910771e-07 1.5502972276e-06 8.3784148441e-07 1.8353441099e-06 8.7861059552e-07 1.6017534494e-06
          9.0624520566e-07 1.6560580322e-06 1.6885165603e-06 1.7592481247e-06 9.5945984825e-07 9.4966610347e-07
          1.7607631059e-06 1.8475796961e-06 1.8505181048e-06 1.940310846e-06 1.0420354459e-06 9.7183084538e-07
          1.7184017296e-06 1.8144296306e-06 1.685055937e-06 9.6309757995e-07 9.180415047e-07 1.8720509898e-06
          9.5741013584e-07 1.6114272528e-06 8.345727733e-07 1.7701181091e-06 8.5915995342e-07
        </DataArray>
      </PointData>
      <CellData>
      </CellData>
      <Points>
        <DataArray type="Float32" Name="Points" NumberOfComponents="3" format="ascii" RangeMin="9.7729634463e-06" RangeMax="0.00013139626904">
          1.9525481548e-05 2.3359831175e-05 5.6870777598e-07 1.989356133e-05 2.3444552426e-05 1.3518048263e-06
          1.2869632883e-05 1.6937836335e-05 1.7954457689e-06 4.9551404118e-06 8.5237734311e-06 2.0005168153e-06
          4.0745951992e-05 1.5488461941e-05 2.527848892e-06 1.3344721083e-05 1.5622419596e-05 2.5060235203e-06
          4.9446066441e-06 7.7168542703e-06 3.3929102301e-06 4.127743523e-05 1.551259993e-05 4.1641505959e-06
          3.1467166991e-05 8.2192846094e-06 5.553644769e-06 1.7200000002e-05 5.7000002016e-06 6.1699997786e-06
          1.5069374513e-06 9.3508997452e-06 6.3136358222e-06 3.2096475479e-05 9.0903886303e-06 6.7379341999e-06
          2.0151642275e-06 1.0798133189e-05 6.9055195127e-06 1.4600000213e-05 8.9300001491e-06 7.4399999903e-06
          2.5600000299e-05 1.6800000594e-05 7.3599999268e-06 4.6400000429e-05 1.1600000107e-05 7.9499995991e-06
          1.391782007e-05 3.8696460251e-05 1.641371e-06 1.4464240849e-05 4.0252456529e-05 2.2777369395e-06
          2.9405264286e-05 4.0603219531e-05 3.5742161799e-06 4.5729517296e-05 4.1193154175e-05 4.2682754611e-06
          2.9394483136e-05 3.977743836e-05 4.9991599553e-06 3.1058960303e-05 4.8827925639e-05 4.9082041187e-06
          3.9300000935e-05 3.8400001358e-05 5.3700000535e-06 4.54716901e-05 4.1007715481e-05 5.1277006605e-06
          1.7500000467e-05 4.059999992e-05 5.6099997892e-06 3.1704643334e-05 4.9721693358e-05 6.1233045017e-06
          4.8532474466e-06 2.9487884603e-05 7.1387366916e-06 4.6026793825e-06 3.2659336284e-05 6.7554246925e-06
          5.3715457398e-06 3.3428801544e-05 7.1855674832e-06 3.6800076487e-05 4.0149585402e-05 7.7153026723e-06
          5.4101737987e-06 2.9513177651e-05 8.8533715825e-06 3.7614667235e-05 4.0159378841e-05 8.6663667389e-06
          3.6801764509e-05 4.0350692871e-05 8.6021873358e-06 4.6926434152e-06 3.2845644455e-05 7.5632683547e-06
          3.6240464397e-05 6.9763722422e-05 2.2040785552e-06 3.6938010453e-05 7.0416142989e-05 2.2349681785e-06
          3.5305783967e-05 7.2243026807e-05 2.0455295271e-06 3.7468587379e-06 5.7287594245e-05 3.1690669857e-06
          1.5940277081e-05 6.7351335019e-05 3.7233862713e-06 3.5293964174e-05 7.1337650297e-05 3.6078201902e-06
          4.3165841817e-06 5.7313471189e-05 4.9231075536e-06 4.1225780478e-06 7.3234608863e-05 4.760903721e-06
          1.5467949197e-05 6.7643573857e-05 5.2303689699e-06 4.7894041018e-06 7.3461786087e-05 5.356737347e-06
          9.6699995993e-06 5.4100000852e-05 5.8999999055e-06 2.3139258701e-05 6.5421940235e-05 5.9200151554e-06
          9.2557293101e-06 6.7062028393e-05 5.8972909756e-06 4.4696721488e-06 7.3257790064e-05 6.1325004026e-06
          6.6075572249e-06 6.2484454247e-05 6.5491062742e-06 2.3675102057e-05 6.3938306994e-05 6.7214623414e-06
          9.8263508335e-06 6.8686938903e-05 6.5618396548e-06 5.1299998631e-06 7.0499998401e-05 7.000000096e-06
          7.3160563261e-06 6.3465173298e-05 7.8824186858e-06 4.8881534894e-05 8.3958308096e-05 8.1569328358e-07
          4.965264452e-05 8.4729828814e-05 1.245616204e-06 9.1122392405e-06 8.3843930042e-05 1.8952194978e-06
          3.853324597e-05 8.4587882156e-05 1.6787366803e-06 5.2624009186e-06 7.8681026935e-05 2.8050601486e-06
          5.8197147155e-06 8.0268044258e-05 3.4541112655e-06 8.6159934654e-06 8.4150975454e-05 3.4785134631e-06
          3.9090173232e-05 8.4613180661e-05 3.3933717987e-06 7.1072563514e-06 8.6621112132e-05 3.180804697e-06
          4.3299998651e-05 7.6700001955e-05 3.8200000745e-06 3.9959111746e-05 9.1301699285e-05 3.8763196244e-06
          3.8478032366e-05 9.1883703135e-05 3.649372502e-06 7.3961323324e-06 8.6888161604e-05 4.6780119192e-06
          8.248611266e-06 8.6692154582e-05 4.7656326387e-06 2.5000052119e-05 8.9345339802e-05 4.5271335694e-06
          4.5613069233e-05 7.8012577433e-05 5.3197036323e-06 4.6173096052e-05 7.9549456132e-05 5.4959423323e-06
          2.9340330002e-05 7.4400930316e-05 6.1722244027e-06 4.733527021e-05 7.6695134339e-05 6.2836193138e-06
          2.5419418307e-05 8.966972382e-05 6.0852048591e-06 1.1945538972e-05 7.6004551374e-05 6.9794086812e-06
          4.7705660108e-05 9.5533519925e-05 6.6719298957e-06 2.9060871384e-05 7.4199931987e-05 7.1037666203e-06
          1.2468806744e-05 7.455573359e-05 7.7620479715e-06 4.8028327001e-05 7.7654476627e-05 7.5878724601e-06
          4.7694087698e-05 9.4647126389e-05 8.2014657892e-06 4.8971429351e-05 8.4144463472e-05 1.6228855202e-06
          6.3452433096e-05 1.4885459677e-05 2.3297200187e-06 5.6400000176e-05 2.2800000806e-05 2.2599999738e-06
          5.0615515647e-05 1.325753783e-05 3.1875090372e-06 6.3961859269e-05 1.3474963453e-05 3.0916589822e-06
          5.1003695262e-05 1.3346884771e-05 4.0133686525e-06 5.874659837e-05 5.3974217735e-06 4.4232137952e-06
          8.0133249867e-05 1.8887885744e-05 4.2687365749e-06 9.3605776783e-05 8.0626314229e-06 4.9062100516e-06
          5.8261641243e-05 5.6974790823e-06 5.9704921114e-06 9.3012145953e-05 1.608029379e-05 5.5347595662e-06
          5.4450745665e-05 1.701655674e-05 5.5727450672e-06 8.069017349e-05 1.8913178792e-05 5.9833719206e-06
          9.3593967904e-05 7.1580620897e-06 6.4671053224e-06 7.0900001447e-05 1.2700000298e-05 6.1400000959e-06
          9.3569957244e-05 1.7668726287e-05 6.1843907133e-06 8.7400003395e-05 3.549999974e-06 6.6600000537e-06
          5.5112821428e-05 1.7933010895e-05 6.8186914177e-06 9.3100003141e-05 2.3900000087e-05 7.4300000961e-06
          5.3000290791e-05 4.8554033128e-05 2.025116828e-06 5.7251596445e-05 3.8488717109e-05 2.5352328521e-06
          5.3712759836e-05 4.8925354349e-05 2.9283646654e-06 5.7771841966e-05 3.8512345782e-05 4.1369330575e-06
          7.2800001362e-05 4.9700000091e-05 5.4199999795e-06 8.7443069788e-05 4.9668356951e-05 5.6407748161e-06
          8.859999798e-05 2.5900000765e-05 8.0899999375e-06 5.3103183745e-05 4.8355213949e-05 2.9013708627e-06
          7.3957613495e-05 7.3379764217e-05 1.324838081e-06 5.2220409998e-05 5.3387302614e-05 2.0192164811e-06
          9.2800000857e-05 5.4000000091e-05 2.6299999263e-06 5.2808049077e-05 5.3796095017e-05 3.153306352e-06
          7.9329474829e-05 7.039312186e-05 3.9084179662e-06 7.4399998994e-05 7.1700000262e-05 3.7800000428e-06
          7.6600001194e-05 5.6500000937e-05 4.8699998842e-06 7.9071731307e-05 7.0207745011e-05 4.767559858e-06
          7.5600284617e-05 5.7449633459e-05 5.2057530411e-06 8.7939028163e-05 5.1080667617e-05 6.2183762566e-06
          7.6413889474e-05 5.7459448726e-05 6.1558089328e-06 7.9899997218e-05 6.6799999331e-05 7.1700001172e-06
          7.5602074503e-05 5.7650511735e-05 6.0917377596e-06 5.2797815442e-05 5.3012132412e-05 4.5060833145e-06
          7.462103531e-05 7.4000265158e-05 1.3542164652e-06 7.4351795774e-05 8.6187224952e-05 1.4387646843e-06
          5.0700000429e-05 7.5800002378e-05 1.5699999949e-06 7.4862538895e-05 8.4773084382e-05 2.2026738407e-06
          9.7634947451e-05 8.7897060439e-05 2.550160616e-06 9.7366253613e-05 8.7703803729e-05 3.4458221307e-06
          8.23268565e-05 8.908759628e-05 3.9390670281e-06 7.1800001024e-05 9.4000002719e-05 4.5400001909e-06
          7.0917820267e-05 8.9296459919e-05 5.4013712543e-06 8.2896585809e-05 8.9113469585e-05 5.693107596e-06
          8.6026266217e-05 7.7750446508e-05 6.4034497882e-06 8.675223944e-05 7.8429446148e-05 6.4355981522e-06
          7.1464244684e-05 9.0852459834e-05 6.0377369664e-06 7.5342592027e-05 9.4005270512e-05 6.5374056248e-06
          6.4105537604e-05 8.982392319e-05 7.4384911386e-06 5.3544510592e-05 9.5704730484e-05 7.0631831477e-06
          5.4436128266e-05 9.5499723102e-05 7.1548270171e-06 9.1593225079e-05 8.3592691226e-05 7.7891454566e-06
          9.2540227342e-05 8.4615916421e-05 7.9058872871e-06 7.6020936831e-05 9.494425467e-05 7.8139719335e-06
          9.2865833722e-05 8.4555264038e-05 8.4200437414e-06 6.4094216214e-05 8.8956701802e-05 8.9349414338e-06
          9.2956179287e-05 8.4742365289e-05 9.2313030109e-06
        </DataArray>
      </Points>
      <Cells>
        <DataArray type="Int64" Name="connectivity" format="ascii" RangeMin="0" RangeMax="142">
          0 1 2 3 4 5
          6 7 8 9 10 11
          12 13 14 15 16 17
          18 19 20 21 22 23
          24 25 26 27 28 29
          30 31 32 33 34 35
          36 37 38 39 40 41
          42 43 44 45 46 47
          48 49 50 51 52 53
          54 55 56 57 58 59
          60 61 62 63 64 65
          66 67 68 69 70 71
          72 73 74 75 76 77
          78 79 80 81 82 83
          84 85 86 87 88 89
          90 91 92 93 94 95
          96 97 98 99 100 101
          102 103 104 105 106 107
          108 109 110 111 112 113
          114 115 116 117 118 119
          120 121 122 123 124 125
          126 127 128 129 130 131
          132 133 134 135 136 137
          138 139 140 141 142
        </DataArray>
        <DataArray type="Int64" Name="offsets" format="ascii" RangeMin="1" RangeMax="143">
          1 2 3 4 5 6
          7 8 9 10 11 12
          13 14 15 16 17 18
          19 20 21 22 23 24
          25 26 27 28 29 30
          31 32 33 34 35 36
          37 38 39 40 41 42
          43 44 45 46 47 48
          49 50 51 52 53 54
          55 56 57 58 59 60
          61 62 63 64 65 66
          67 68 69 70 71 72
          73 74 75 76 77 78
          79 80 81 82 83 84
          85 86 87 88 89 90
          91 92 93 94 95 96
          97 98 99 100 101 102
          103 104 105 106 107 108
          109 110 111 112 113 114
          115 116 117 118 119 120
          121 122 123 124 125 126
          127 128 129 130 131 132
          133 134 135 136 137 138
          139 140 141 142 143
        </DataArray>
        <DataArray type="UInt8" Name="types" format="ascii" RangeMin="1" RangeMax="1">
          1 1 1 1 1 1
          1 1 1 1 1 1
          1 1 1 1 1 1
          1 1 1 1 1 1
          1 1 1 1 1 1
          1 1 1 1 1 1
          1 1 1 1 1 1
          1 1 1 1 1 1
          1 1 1 1 1 1
          1 1 1 1 1 1
          1 1 1 1 1 1
          1 1 1 1 1 1
          1 1 1 1 1 1
          1 1 1 1 1 1
          1 1 1 1 1 1
          1 1 1 1 1 1
          1 1 1 1 1 1
          1 1 1 1 1 1
          1 1 1 1 1 1
          1 1 1 1 1 1
          1 1 1 1 1 1
          1 1 1 1 1 1
          1 1 1 1 1 1
          1 1 1 1 1
        </DataArray>
      </Cells>
    </Piece>
  </UnstructuredGrid>
</VTKFile>
