<?xml version="1.0"?>
<VTKFile type="UnstructuredGrid" version="0.1" byte_order="LittleEndian" header_type="UInt32" compressor="vtkZLibDataCompressor">
  <UnstructuredGrid>
    <Piece NumberOfPoints="116" NumberOfCells="116">
      <PointData>
        <DataArray type="Int32" Name="id" format="ascii" RangeMin="1" RangeMax="116">
          75 50 19 59 97 42
          49 15 22 44 3 93
          40 1 78 24 7 54
          20 62 61 84 106 109
          77 32 51 85 60 81
          67 18 92 82 14 26
          57 12 89 105 64 37
          90 34 46 86 79 35
          2 69 48 13 39 72
          30 23 96 95 99 101
          111 113 115 43 56 73
          6 38 33 88 87 91
          17 47 41 58 10 102
          110 116 66 11 45 36
          103 107 68 55 25 80
          5 74 4 9 76 52
          108 21 29 65 28 8
          94 83 63 53 27 70
          16 71 31 98 100 104
          112 114
        </DataArray>
        <DataArray type="Int32" Name="type" format="ascii" RangeMin="1" RangeMax="2">
          2 1 1 1 1 1
          1 1 1 1 1 1
          1 1 2 1 1 1
          1 2 2 1 2 2
          2 1 1 1 1 1
          2 1 1 1 1 1
          1 1 1 2 2 1
          1 1 1 1 2 1
          1 2 1 1 1 2
          1 1 1 1 1 1
          2 2 1 1 1 2
          1 1 1 1 1 1
          1 1 1 1 1 1
          1 1 2 1 1 1
          1 2 2 1 1 1
          1 2 1 1 2 1
          2 1 1 2 1 1
          1 1 2 1 1 2
          1 2 1 1 1 1
          2 2
        </DataArray>
        <DataArray type="Float64" Name="diameter" format="ascii" RangeMin="8.0547045626e-07" RangeMax="1.9656217112e-06">
          9.45676602e-07 1.8851576673e-06 1.9311371114e-06 1.5502373404e-06 1.7083174434e-06 1.6552604117e-06
          1.8966525412e-06 1.9541268346e-06 1.5977860935e-06 1.7472193206e-06 1.6897450022e-06 1.738484939e-06
          1.6143670832e-06 1.9656217112e-06 1.0027929447e-06 1.8161884957e-06 1.7357244448e-06 1.9541268493e-06
          1.6368427906e-06 8.2944979976e-07 9.0902803461e-07 1.8037541904e-06 8.1551586934e-07 8.9012970735e-07
          1.0376413191e-06 1.6808683946e-06 1.6541638601e-06 1.7657191675e-06 1.9081473875e-06 1.8228415091e-06
          9.24626294e-07 1.7587141688e-06 1.6353556466e-06 1.8046229611e-06 1.8105157343e-06 1.7372557544e-06
          1.6757832353e-06 1.8276833507e-06 1.6079512476e-06 8.295020609e-07 8.2617960122e-07 1.6368427605e-06
          1.7668298024e-06 1.6338900741e-06 1.640688283e-06 1.8037541558e-06 8.2935386244e-07 1.7357244315e-06
          1.9196422474e-06 9.2432899996e-07 1.9541268309e-06 1.6419167936e-06 1.7431029249e-06 8.4970885528e-07
          1.6275075052e-06 1.6621311765e-06 1.548080733e-06 1.7096646094e-06 1.5646375608e-06 1.5765509042e-06
          8.8662027149e-07 8.4103540044e-07 1.4891213732e-06 1.7357244476e-06 1.6245688853e-06 9.9198545643e-07
          1.6368427624e-06 1.6630814364e-06 1.5967562218e-06 1.7857263931e-06 1.8037541559e-06 1.7470343203e-06
          1.793198772e-06 1.6949509232e-06 1.6582357694e-06 1.8276833591e-06 1.7127347269e-06 1.5053160845e-06
          1.5292785153e-06 1.540720211e-06 9.0822913166e-07 1.5242557093e-06 1.6437655483e-06 1.8161885114e-06
          1.6796864257e-06 8.1479181522e-07 9.9481120691e-07 1.6801454719e-06 1.8276833541e-06 1.8514725098e-06
          1.6552604077e-06 9.6401536282e-07 1.7587141801e-06 1.9081473981e-06 9.077263871e-07 1.7242295934e-06
          8.1434279527e-07 1.586291214e-06 1.6527405845e-06 1.0136778301e-06 1.6541638484e-06 1.7357244315e-06
          1.7384849449e-06 1.8228414993e-06 8.1657530761e-07 1.6143670882e-06 1.7045813174e-06 9.9353299365e-07
          1.758714184e-06 8.9783883368e-07 1.5830400957e-06 1.6629524695e-06 1.5138690065e-06 1.5557977795e-06
          8.0547045626e-07 8.7621430164e-07
        </DataArray>
      </PointData>
      <CellData>
      </CellData>
      <Points>
        <DataArray type="Float32" Name="Points" NumberOfComponents="3" format="ascii" RangeMin="9.888468375e-06" RangeMax="0.00013124058025">
          1.9700000848e-05 2.3399999918e-05 9.4000000672e-07 1.3099999705e-05 1.6300000425e-05 2.140000106e-06
          4.9499999477e-06 8.130000424e-06 2.6800000796e-06 4.0758306568e-05 1.5489024008e-05 2.5658885079e-06
          4.1265077016e-05 1.5512037862e-05 4.1261105252e-06 1.7200000002e-05 5.7000002016e-06 6.1699997786e-06
          3.1799998396e-05 8.6800000645e-06 6.1800001276e-06 1.7700000399e-06 1.0099999599e-05 6.6200000219e-06
          1.4600000213e-05 8.9300001491e-06 7.4399999903e-06 2.5600000299e-05 1.6800000594e-05 7.3599999268e-06
          4.6400000429e-05 1.1600000107e-05 7.9499995991e-06 1.393018465e-05 3.873166861e-05 1.6557711433e-06
          1.4451876268e-05 4.021724817e-05 2.2633369099e-06 2.940000013e-05 4.0200000512e-05 4.269999863e-06
          4.5600001613e-05 4.110000009e-05 4.6999998631e-06 3.9300000935e-05 3.8400001358e-05 5.3700000535e-06
          1.7500000467e-05 4.059999992e-05 5.6099997892e-06 3.1399998988e-05 4.9300000683e-05 5.5499999689e-06
          4.8656033869e-06 2.9488446671e-05 7.1767763075e-06 5.3131493587e-06 3.3374184568e-05 7.1829813351e-06
          3.7193483877e-05 4.0244533011e-05 8.5716446847e-06 5.3978183132e-06 2.9512617402e-05 8.8153319666e-06
          3.6825549614e-05 4.015984814e-05 7.7888516898e-06 4.7054045353e-06 3.2805757655e-05 7.1560689321e-06
          3.6599998566e-05 7.0100002631e-05 2.2199999421e-06 3.5305522033e-05 7.2222966992e-05 2.0801371647e-06
          3.7653921936e-06 5.7288438256e-05 3.2261266369e-06 3.5294226109e-05 7.1357702836e-05 3.5732125525e-06
          1.5699999494e-05 6.7499997385e-05 4.4899998102e-06 4.2980509534e-06 5.7312627177e-05 4.8660481298e-06
          4.5741098802e-06 7.3344679549e-05 5.6529729591e-06 9.6699995993e-06 5.4100000852e-05 5.8999999055e-06
          2.3151373171e-05 6.538839807e-05 5.9381336541e-06 9.2742766356e-06 6.7114844569e-05 5.91889102e-06
          6.6232978497e-06 6.250624574e-05 6.5787285166e-06 2.3662987587e-05 6.3971841882e-05 6.7033438427e-06
          9.807803508e-06 6.8634122727e-05 6.5402396103e-06 5.1299998631e-06 7.0499998401e-05 7.000000096e-06
          7.3003157013e-06 6.3443389081e-05 7.8527964433e-06 4.204988727e-06 7.3259718192e-05 4.8676597544e-06
          4.9594247685e-05 8.46752082e-05 1.2430301695e-06 3.8545604184e-05 8.4588449681e-05 1.7167765236e-06
          5.2809477893e-06 7.8733843111e-05 2.826660193e-06 9.100475836e-06 8.3851213276e-05 1.932751502e-06
          5.80116739e-06 8.0215228081e-05 3.432511221e-06 3.9077818656e-05 8.4612620412e-05 3.3553319554e-06
          7.1072563514e-06 8.6621112132e-05 3.180804697e-06 4.3299998651e-05 7.6700001955e-05 3.8200000745e-06
          3.9200000174e-05 9.1599998996e-05 3.7600000269e-06 7.8320481407e-06 8.6787935288e-05 4.7228168114e-06
          4.5900000259e-05 7.8800003394e-05 5.4100000852e-06 2.540922651e-05 8.9661836682e-05 6.0473371377e-06
          4.7358880693e-05 7.6727817941e-05 6.3280526774e-06 2.9317818189e-05 7.438474131e-05 6.2472645368e-06
          4.7705267207e-05 9.5503441116e-05 6.7238411248e-06 1.245063595e-05 7.4606039561e-05 7.7348704508e-06
          4.8004716518e-05 7.7621793025e-05 7.5434390965e-06 4.76944806e-05 9.4677212473e-05 8.1495536506e-06
          1.1963709767e-05 7.5954238127e-05 7.0065866566e-06 8.6277568698e-06 8.414369222e-05 3.4409815726e-06
          4.898422776e-05 8.4104656707e-05 1.2160165852e-06 2.9083383197e-05 7.4216120993e-05 7.0287264862e-06
          2.5010243917e-05 8.9353219664e-05 4.5650012908e-06 5.6400000176e-05 2.2800000806e-05 2.2599999738e-06
          6.3943691202e-05 1.3525274881e-05 3.0644814615e-06 5.0800001191e-05 1.3300000319e-05 3.5800001115e-06
          8.0145604443e-05 1.8888445993e-05 4.3067766455e-06 9.3605383881e-05 8.0325471572e-06 4.9581212807e-06
          5.8734836784e-05 5.4047000049e-06 4.4607459131e-06 9.3024507805e-05 1.6115502149e-05 5.5491595958e-06
          8.0677818914e-05 1.8912616724e-05 5.9453318499e-06 9.3594360806e-05 7.1881459007e-06 6.4151936385e-06
          7.0900001447e-05 1.2700000298e-05 6.1400000959e-06 5.44664872e-05 1.7038344595e-05 5.6023673096e-06
          9.3557588116e-05 1.7633516109e-05 6.1699906837e-06 8.7400003395e-05 3.549999974e-06 6.6600000537e-06
          9.3100003141e-05 2.3900000087e-05 7.4300000961e-06 5.5097079894e-05 1.791122304e-05 6.7890687205e-06
          6.3470601162e-05 1.4835149159e-05 2.3568975394e-06 5.8273406466e-05 5.6902008509e-06 5.9329599935e-06
          5.3393323469e-05 4.8644498747e-05 2.8613017093e-06 5.7263954659e-05 3.8489280996e-05 2.5732726954e-06
          7.2800001362e-05 4.9700000091e-05 5.4199999795e-06 8.859999798e-05 2.5900000765e-05 8.0899999375e-06
          5.775948739e-05 3.8511785533e-05 4.0988934416e-06 5.3025694797e-05 4.855987936e-05 2.0791592306e-06
          7.4299998232e-05 7.3700000939e-05 1.3400000398e-06 5.22389455e-05 5.3388142987e-05 2.0762761324e-06
          9.2800000857e-05 5.4000000091e-05 2.6299999263e-06 5.2784525906e-05 5.3412921261e-05 3.7559832435e-06
          7.4399998994e-05 7.1700000262e-05 3.7800000428e-06 7.9199999163e-05 7.0299996878e-05 4.3400000322e-06
          7.6600001194e-05 5.6500000937e-05 4.8699998842e-06 8.7699998403e-05 5.0400001783e-05 5.9399999373e-06
          7.5993251812e-05 5.7544479205e-05 6.0611423578e-06 7.9899997218e-05 6.6799999331e-05 7.1700001172e-06
          7.5625757745e-05 5.7459896198e-05 5.2793020586e-06 5.0700000429e-05 7.5800002378e-05 1.5699999949e-06
          7.4850424426e-05 8.4806626546e-05 2.184555342e-06 9.7500000265e-05 8.7799999164e-05 3.0000001061e-06
          8.234539564e-05 8.9088440291e-05 3.9961269067e-06 7.1800001024e-05 9.4000002719e-05 4.5400001909e-06
          7.0930182119e-05 8.9331668278e-05 5.4157712839e-06 8.2878053945e-05 8.9112625574e-05 5.6360481722e-06
          8.6693842604e-05 7.837483281e-05 6.433012004e-06 7.1451875556e-05 9.08172442e-05 6.0233369368e-06
          7.5366202509e-05 9.4037954113e-05 6.5818389885e-06 5.4000000091e-05 9.560000035e-05 7.1099998422e-06
          9.1599998996e-05 8.3600003563e-05 7.7900003816e-06 9.2885791673e-05 8.4642764705e-05 8.7652824732e-06
          6.4105144702e-05 8.9793837105e-05 7.4904028224e-06 6.4094609115e-05 8.8986787887e-05 8.8830302047e-06
          7.5997326348e-05 9.4911571068e-05 7.7695385698e-06 7.4363910244e-05 8.6153690063e-05 1.4568830693e-06
          9.2533322459e-05 8.4561637777e-05 8.0153831732e-06 8.6084663053e-05 7.7805067122e-05 6.4060359364e-06
        </DataArray>
      </Points>
      <Cells>
        <DataArray type="Int64" Name="connectivity" format="ascii" RangeMin="0" RangeMax="115">
          0 1 2 3 4 5
          6 7 8 9 10 11
          12 13 14 15 16 17
          18 19 20 21 22 23
          24 25 26 27 28 29
          30 31 32 33 34 35
          36 37 38 39 40 41
          42 43 44 45 46 47
          48 49 50 51 52 53
          54 55 56 57 58 59
          60 61 62 63 64 65
          66 67 68 69 70 71
          72 73 74 75 76 77
          78 79 80 81 82 83
          84 85 86 87 88 89
          90 91 92 93 94 95
          96 97 98 99 100 101
          102 103 104 105 106 107
          108 109 110 111 112 113
          114 115
        </DataArray>
        <DataArray type="Int64" Name="offsets" format="ascii" RangeMin="1" RangeMax="116">
          1 2 3 4 5 6
          7 8 9 10 11 12
          13 14 15 16 17 18
          19 20 21 22 23 24
          25 26 27 28 29 30
          31 32 33 34 35 36
          37 38 39 40 41 42
          43 44 45 46 47 48
          49 50 51 52 53 54
          55 56 57 58 59 60
          61 62 63 64 65 66
          67 68 69 70 71 72
          73 74 75 76 77 78
          79 80 81 82 83 84
          85 86 87 88 89 90
          91 92 93 94 95 96
          97 98 99 100 101 102
          103 104 105 106 107 108
          109 110 111 112 113 114
          115 116
        </DataArray>
        <DataArray type="UInt8" Name="types" format="ascii" RangeMin="1" RangeMax="1">
          1 1 1 1 1 1
          1 1 1 1 1 1
          1 1 1 1 1 1
          1 1 1 1 1 1
          1 1 1 1 1 1
          1 1 1 1 1 1
          1 1 1 1 1 1
          1 1 1 1 1 1
          1 1 1 1 1 1
          1 1 1 1 1 1
          1 1 1 1 1 1
          1 1 1 1 1 1
          1 1 1 1 1 1
          1 1 1 1 1 1
          1 1 1 1 1 1
          1 1 1 1 1 1
          1 1 1 1 1 1
          1 1 1 1 1 1
          1 1 1 1 1 1
          1 1
        </DataArray>
      </Cells>
    </Piece>
  </UnstructuredGrid>
</VTKFile>
