<?xml version="1.0"?>
<VTKFile type="UnstructuredGrid" version="0.1" byte_order="LittleEndian" header_type="UInt32" compressor="vtkZLibDataCompressor">
  <UnstructuredGrid>
    <Piece NumberOfPoints="180" NumberOfCells="180">
      <PointData>
        <DataArray type="Int32" Name="id" format="ascii" RangeMin="1" RangeMax="180">
          133 174 75 19 134 59
          50 123 97 49 42 118
          131 15 22 44 3 93
          40 1 78 176 175 54
          150 117 24 7 124 119
          20 109 154 62 106 84
          141 161 137 61 166 148
          121 77 177 32 51 60
          85 105 81 151 167 129
          155 67 18 92 160 145
          135 14 26 82 57 158
          89 12 111 64 37 34
          142 156 90 168 79 46
          35 101 157 2 126 86
          115 136 69 48 120 72
          149 39 13 99 30 113
          23 96 95 110 43 127
          56 33 159 73 6 38
          179 146 47 87 116 17
          173 88 41 169 91 102
          58 10 107 11 162 66
          138 103 45 130 152 36
          125 55 163 25 80 147
          74 5 140 4 132 108
          164 9 76 139 52 68
          104 21 29 65 170 122
          178 28 8 83 94 114
          144 63 53 165 153 27
          70 171 31 128 180 16
          112 172 100 71 98 143
        </DataArray>
        <DataArray type="Int32" Name="type" format="ascii" RangeMin="1" RangeMax="2">
          2 2 2 1 1 1
          1 1 1 1 1 1
          1 1 1 1 1 1
          1 1 2 2 2 1
          1 1 1 1 2 1
          1 2 2 2 2 1
          2 2 2 2 1 2
          2 2 2 1 1 1
          1 2 1 1 1 1
          2 2 1 1 1 1
          2 1 1 1 1 2
          1 1 2 2 1 1
          2 2 1 1 2 1
          1 1 2 1 1 1
          1 2 2 1 1 2
          2 1 1 1 1 2
          1 1 1 1 1 2
          1 1 2 2 1 1
          1 1 1 1 1 1
          1 1 1 1 1 1
          1 1 2 1 2 2
          2 1 1 1 1 1
          2 1 2 1 1 1
          2 1 1 1 2 2
          2 1 2 2 1 2
          1 1 1 2 2 2
          2 1 1 1 1 2
          2 2 1 2 1 1
          2 2 1 2 2 1
          2 2 1 2 1 2
        </DataArray>
        <DataArray type="Float64" Name="diameter" format="ascii" RangeMin="7.9376723333e-07" RangeMax="1.9543746775e-06">
          9.7688279114e-07 8.9365346597e-07 8.3269834537e-07 1.6527010517e-06 1.6036051809e-06 1.7147914562e-06
          1.7035268966e-06 1.7361299309e-06 1.8896513933e-06 1.7576869396e-06 1.8309624941e-06 1.7767042828e-06
          1.5610330611e-06 1.6498577894e-06 1.7673874112e-06 1.9326826266e-06 1.8691075433e-06 1.9230210817e-06
          1.7857284161e-06 1.6822135927e-06 8.9185777509e-07 8.6448557341e-07 8.5567251277e-07 1.8109501659e-06
          1.544936714e-06 1.7671322736e-06 1.6412027567e-06 1.9199675823e-06 8.6593493403e-07 1.6083370831e-06
          1.8105898787e-06 9.6451487995e-07 8.8540815346e-07 9.3749562962e-07 9.2017349716e-07 1.6113757101e-06
          9.9293025826e-07 8.6578091629e-07 1.0192992836e-06 9.7193937597e-07 1.5548266513e-06 9.5903789997e-07
          9.1467721575e-07 8.9947238546e-07 8.4949748963e-07 1.8592886802e-06 1.8297495182e-06 1.7046348865e-06
          1.9531461631e-06 9.1512796623e-07 1.6408130505e-06 1.5577592258e-06 1.5533400617e-06 1.6448130233e-06
          9.4208836664e-07 1.0405993487e-06 1.9453976087e-06 1.8089448751e-06 1.5476350931e-06 1.5226913839e-06
          1.0301273702e-06 1.629349097e-06 1.9216614442e-06 1.614227425e-06 1.8536637499e-06 9.2290851167e-07
          1.7786315255e-06 1.6789313483e-06 9.6654021723e-07 9.4041674632e-07 1.8105898109e-06 1.8073237121e-06
          9.9430265512e-07 8.8480281081e-07 1.9543746775e-06 1.5525922277e-06 9.3233838782e-07 1.814843535e-06
          1.9199675543e-06 1.7438981384e-06 8.9452224449e-07 1.7275560356e-06 1.6409168196e-06 1.613450279e-06
          1.6471881781e-06 1.0416539855e-06 9.9315803064e-07 1.7589882608e-06 1.6699527079e-06 9.5908547194e-07
          9.0579845911e-07 1.9281292638e-06 1.8162024782e-06 1.7307202292e-06 1.8002636762e-06 9.2444993302e-07
          1.8385625645e-06 1.7124059294e-06 1.891141577e-06 1.6916078986e-06 1.9199675887e-06 1.0324006514e-06
          1.7970131176e-06 1.7662481953e-06 9.445017722e-07 8.8011533527e-07 1.8105898198e-06 1.8396136909e-06
          1.5370747342e-06 1.5226914022e-06 1.8748660465e-06 1.6236317494e-06 1.7042640928e-06 1.6137649663e-06
          1.5328325226e-06 1.5973245328e-06 1.8342536656e-06 1.5414476025e-06 1.9324779805e-06 1.6651019199e-06
          1.6789313683e-06 1.8945375705e-06 8.9820814464e-07 1.6860519387e-06 8.8902188785e-07 9.5975268298e-07
          1.0299651348e-06 1.8579812635e-06 1.8182474787e-06 1.7348995023e-06 1.6512899183e-06 1.5333972843e-06
          8.8052289741e-07 1.8584890029e-06 9.0646380487e-07 1.6937710396e-06 1.5845226721e-06 1.504268208e-06
          1.0599689597e-06 1.8309624858e-06 1.6645098884e-06 1.9453976343e-06 1.049223228e-06 9.1718873722e-07
          8.6622951675e-07 1.611037625e-06 9.7109451112e-07 1.018081493e-06 1.9072525939e-06 1.0498154164e-06
          1.7209421068e-06 1.7546723586e-06 1.8281751726e-06 8.971238313e-07 8.6077668795e-07 9.2394340785e-07
          8.0914749953e-07 1.8297495102e-06 1.9199675582e-06 1.6284272525e-06 1.9230210929e-06 9.836531929e-07
          9.2867409563e-07 9.1902452163e-07 1.7857284252e-06 8.6467566972e-07 1.5712797926e-06 1.885518683e-06
          8.9011734353e-07 8.8569286802e-07 1.7510761539e-06 8.8717778391e-07 7.9376723333e-07 1.9453976428e-06
          9.0399042894e-07 8.5154279224e-07 1.6745627101e-06 9.6488055631e-07 1.8394710524e-06 9.9330670774e-07
        </DataArray>
      </PointData>
      <CellData>
      </CellData>
      <Points>
        <DataArray type="Float32" Name="Points" NumberOfComponents="3" format="ascii" RangeMin="9.7690909622e-06" RangeMax="0.00013160354846">
          1.9500079361e-05 2.3353984943e-05 5.1466543027e-07 1.9603827241e-05 2.3155651434e-05 1.3918921695e-06
          2.021261389e-05 2.3725051506e-05 1.4188509567e-06 4.9554023462e-06 8.5438296082e-06 1.9659089503e-06
          1.2857519323e-05 1.6971376681e-05 1.7773273839e-06 4.0733597416e-05 1.5487901692e-05 2.4898090487e-06
          1.3356835552e-05 1.5588879251e-05 2.524142019e-06 4.9443447097e-06 7.6967990026e-06 3.4275178677e-06
          4.1289789806e-05 1.5513160179e-05 4.2021902118e-06 3.1459294405e-05 8.2083897723e-06 5.5388336477e-06
          1.7200000002e-05 5.7000002016e-06 6.1699997786e-06 1.4945727571e-06 9.3156895673e-06 6.2992357925e-06
          3.2104348065e-05 9.1012825578e-06 6.7527453211e-06 2.027528808e-06 1.0833342458e-05 6.9199195423e-06
          1.4600000213e-05 8.9300001491e-06 7.4399999903e-06 2.5600000299e-05 1.6800000594e-05 7.3599999268e-06
          4.6400000429e-05 1.1600000107e-05 7.9499995991e-06 1.390545458e-05 3.8661248254e-05 1.6269709704e-06
          1.4476606339e-05 4.0287668526e-05 2.2921369691e-06 2.940552622e-05 4.0623275709e-05 3.5396085423e-06
          4.5857272198e-05 4.0960854676e-05 3.8495786612e-06 4.5198237785e-05 4.0840786824e-05 4.874287697e-06
          4.566581265e-05 4.146007268e-05 4.5305955609e-06 3.1043218769e-05 4.8806137784e-05 4.8785818763e-06
          3.9064412704e-05 3.905228732e-05 5.0176395234e-06 2.9394221201e-05 3.9757382183e-05 5.0337680477e-06
          3.9549886424e-05 3.7708112359e-05 5.7437514442e-06 1.7500000467e-05 4.059999992e-05 5.6099997892e-06
          4.5688444516e-05 4.112114766e-05 5.5076543504e-06 3.1720384868e-05 4.9743481213e-05 6.1529271989e-06
          4.6527320592e-06 2.9519362215e-05 6.8962986006e-06 4.5968713493e-06 3.2647545595e-05 6.696928267e-06
          5.8338200688e-06 3.3393545891e-05 7.1663230301e-06 4.949214599e-06 3.3540472941e-05 7.1561235018e-06
          3.6909030314e-05 3.9825383283e-05 7.2669208748e-06 5.992484148e-06 2.9235294278e-05 7.9220244515e-06
          4.6674335863e-06 3.2781579648e-05 7.6457990872e-06 3.6696812458e-05 4.0414313844e-05 7.8577750173e-06
          3.6737692426e-05 4.0373095544e-05 8.7901116785e-06 3.7692203477e-05 4.014064325e-05 8.6669724624e-06
          5.1821098168e-06 2.9659877328e-05 9.2286527433e-06 3.5775265133e-05 6.9837784395e-05 2.15791556e-06
          3.6639641621e-05 6.9543028076e-05 2.2515796445e-06 3.6542576709e-05 7.0491536462e-05 2.2560318484e-06
          3.738410669e-05 7.0433554356e-05 2.2172528134e-06 3.5306045902e-05 7.2263079346e-05 2.0109218895e-06
          3.7406809952e-06 5.7287314121e-05 3.1500471778e-06 1.5952040485e-05 6.7344051786e-05 3.6858543808e-06
          3.529370224e-05 7.1317590482e-05 3.6424278278e-06 4.0460940909e-06 7.3118862929e-05 4.2739170567e-06
          4.0419531615e-06 5.6543125538e-05 4.8537576731e-06 4.5897013479e-06 5.8046312915e-05 5.0261332945e-06
          9.2233658506e-06 6.7022330768e-05 5.1214692576e-06 1.5456185793e-05 6.765085709e-05 5.2679010878e-06
          4.0173717935e-06 7.3299386713e-05 5.1493002502e-06 4.9569980547e-06 7.350906526e-05 5.3767662394e-06
          9.6699995993e-06 5.4100000852e-05 5.8999999055e-06 2.3127144232e-05 6.5455475124e-05 5.9018971115e-06
          5.8967666519e-06 6.2749779318e-05 6.4265859692e-06 4.9354753173e-06 7.0349531597e-05 6.2772837737e-06
          4.4365128815e-06 7.3237926699e-05 6.2024159888e-06 7.3397204687e-06 6.2182763941e-05 6.6476909524e-06
          2.3687214707e-05 6.3904764829e-05 6.7395808401e-06 9.2767550086e-06 6.7067390773e-05 6.6888405854e-06
          9.8325335784e-06 6.870454672e-05 6.5690401243e-06 2.877615043e-05 7.3994349805e-05 6.8565645961e-06
          7.3239266385e-06 6.3476072683e-05 7.897229807e-06 5.3439612202e-06 7.0665497333e-05 7.7949298429e-06
          4.887506293e-05 8.3944905782e-05 7.575691825e-07 4.9747228331e-05 8.4453291493e-05 8.7910802904e-07
          3.8396392483e-05 8.4586383309e-05 1.4124453855e-06 9.124002645e-06 8.3836654085e-05 1.8576876073e-06
          4.8977901315e-05 8.4157873061e-05 1.6810096213e-06 4.9563175708e-05 8.4991406766e-05 1.5922993271e-06
          5.2500358834e-06 7.8645818576e-05 2.790660119e-06 3.9221216866e-05 8.4590959887e-05 2.8696849768e-06
          7.2218476816e-06 8.6369094788e-05 2.8067331641e-06 5.8320792959e-06 8.0303252616e-05 3.4685115224e-06
          4.3299998651e-05 7.6700001955e-05 3.8200000745e-06 8.6042300609e-06 8.4158251411e-05 3.5160453535e-06
          6.9969128162e-06 8.686377987e-05 3.5410075725e-06 3.9995968109e-05 9.128722013e-05 3.8819671317e-06
          3.8441176002e-05 9.1898182291e-05 3.6437249946e-06 3.9124730392e-05 8.4643623268e-05 4.4500757213e-06
          2.4989860322e-05 8.9337452664e-05 4.489265848e-06 7.3379492278e-06 8.690154209e-05 4.6720315368e-06
          8.3067943706e-06 8.6678781372e-05 4.7716130211e-06 4.5599455916e-05 7.797521539e-05 5.3154190027e-06
          4.6186709369e-05 7.9586818174e-05 5.5002274166e-06 2.8897164157e-05 7.4491283158e-05 6.0838547142e-06
          2.9810480555e-05 7.4370836955e-05 6.1355817706e-06 4.7327397624e-05 7.6684234955e-05 6.2688081925e-06
          2.5429610105e-05 8.9677603683e-05 6.1230725805e-06 1.1939481737e-05 7.6021315181e-05 6.9703496592e-06
          4.7705922043e-05 9.555357974e-05 6.6373218033e-06 2.932595271e-05 7.4343341112e-05 7.4930239862e-06
          1.2474863979e-05 7.4538962508e-05 7.7711074482e-06 4.8036195949e-05 7.7665368735e-05 7.6026835814e-06
          4.7693825763e-05 9.4627066574e-05 8.2360729721e-06 6.34463795e-05 1.490222985e-05 2.3206607693e-06
          5.6400000176e-05 2.2800000806e-05 2.2599999738e-06 5.0594248023e-05 1.3262630091e-05 3.1127478906e-06
          6.3967920141e-05 1.345819328e-05 3.1007182315e-06 5.8758363593e-05 5.3901435422e-06 4.3856821321e-06
          5.0687023759e-05 1.3030926311e-05 4.0577560867e-06 5.1342722145e-05 1.365215212e-05 4.0633158278e-06
          8.0120895291e-05 1.8887323677e-05 4.230696959e-06 9.3606038718e-05 8.0826866906e-06 4.8716024139e-06
          9.2973619758e-05 1.6023008357e-05 4.7524431466e-06 8.7205473392e-05 3.3995336253e-06 5.9372837313e-06
          5.4435004131e-05 1.6994767066e-05 5.5431228247e-06 8.0428777437e-05 1.8162487322e-05 5.9352632888e-06
          5.8249879658e-05 5.7047577684e-06 6.0080237745e-06 7.164003182e-05 1.2409198462e-05 6.2533958953e-06
          7.0197078458e-05 1.2976217477e-05 6.0322913669e-06 9.3026959803e-05 1.6068022887e-05 6.3183756538e-06
          9.3582319096e-05 1.7703936464e-05 6.1987907429e-06 8.0962425272e-05 1.9626964786e-05 6.1031996665e-06
          9.3593705969e-05 7.1380059126e-06 6.50171296e-06 5.5128559325e-05 1.7954800569e-05 6.8483136602e-06
          8.7613960204e-05 3.7155009522e-06 7.4549298006e-06 9.3100003141e-05 2.3900000087e-05 7.4300000961e-06
          5.3159288655e-05 4.8679354222e-05 1.4463998923e-06 5.7239241869e-05 3.8488156861e-05 2.4971930088e-06
          5.2789775509e-05 4.8519927077e-05 2.2455442377e-06 5.3769901569e-05 4.8981011787e-05 2.9263019314e-06
          5.3124862461e-05 4.8272238928e-05 3.0896876524e-06 5.7784196542e-05 3.8512906031e-05 4.1749731281e-06
          7.2800001362e-05 4.9700000091e-05 5.4199999795e-06 8.743070066e-05 4.9633144954e-05 5.6263747865e-06
          8.8343404059e-05 2.5169319997e-05 7.7911699918e-06 8.8838714873e-05 2.6579769838e-05 8.3680097305e-06
          7.3882052675e-05 7.3256444011e-05 9.0722386403e-07 5.2132549172e-05 5.3325744375e-05 1.8504268837e-06
          7.3976079875e-05 7.3451163189e-05 1.7515607169e-06 9.2466711067e-05 5.3538657085e-05 2.0027939627e-06
          5.2900642913e-05 5.3885916714e-05 3.2871039366e-06 9.3096881756e-05 5.4410946177e-05 3.188690016e-06
          7.9346355051e-05 7.0405265433e-05 3.8521375245e-06 7.4399998994e-05 7.1700000262e-05 3.7800000428e-06
          5.2789448091e-05 5.2941024478e-05 4.6052768994e-06 7.6668482507e-05 5.6405900978e-05 4.8424426495e-06
          7.9054851085e-05 7.0195601438e-05 4.8238402997e-06 7.5078787631e-05 5.7502649724e-05 5.1821539273e-06
          7.5936150097e-05 5.7537235989e-05 5.1680203796e-06 8.795139729e-05 5.1115875976e-05 6.2327762862e-06
          7.6472133514e-05 5.7445449784e-05 6.1590831137e-06 7.554347394e-05 5.7671313698e-05 6.1193723013e-06
          7.9899997218e-05 6.6799999331e-05 7.1700001172e-06 7.4650233728e-05 7.4027579103e-05 1.3555094256e-06
          7.4339681305e-05 8.6220767116e-05 1.4206462993e-06 5.0700000429e-05 7.5800002378e-05 1.5699999949e-06
          7.4874653365e-05 8.4739542217e-05 2.220792112e-06 9.7760625067e-05 8.7651489594e-05 2.1391701921e-06
          9.7602198366e-05 8.8236905867e-05 2.7483238227e-06 9.7153671959e-05 8.7587344751e-05 3.1557790408e-06
          9.7464813734e-05 8.7658103439e-05 3.9382157411e-06 8.2209917309e-05 8.9103479695e-05 3.779086228e-06
          7.1800001024e-05 9.4000002719e-05 4.5400001909e-06 8.3313709183e-05 8.8932742074e-05 5.092511401e-06
          7.0905458415e-05 8.926125156e-05 5.3869707699e-06 8.5521649453e-05 7.7791497461e-05 6.4269815994e-06
          8.643532783e-05 7.7599790529e-05 6.3867350946e-06 8.6914878921e-05 7.8282995673e-05 6.0595357354e-06
          7.1476606536e-05 9.0887668193e-05 6.052136996e-06 8.6707274022e-05 7.8768898675e-05 6.7729151851e-06
          8.2641905465e-05 8.9271343313e-05 6.5084445851e-06 7.5334726716e-05 9.3994378403e-05 6.5225945036e-06
          5.4502670537e-05 9.5213967143e-05 6.7955415943e-06 5.3241186833e-05 9.5585979579e-05 6.7169767135e-06
          6.4105668571e-05 8.983394946e-05 7.4211875472e-06 5.3684125305e-05 9.5868730568e-05 7.4052782111e-06
          5.4553082009e-05 9.5698262157e-05 7.4670201684e-06 9.1533649538e-05 8.3513732534e-05 7.788050425e-06
          9.203326772e-05 8.4843253717e-05 7.7151553342e-06 9.2856680567e-05 8.4579958639e-05 7.6755623013e-06
          7.6028809417e-05 9.4955146778e-05 7.8287830547e-06 9.3048962299e-05 8.4432263975e-05 8.5330511865e-06
          6.4094085246e-05 8.8946675532e-05 8.95224548e-06 9.2959904578e-05 8.4799190518e-05 9.4222605185e-06
        </DataArray>
      </Points>
      <Cells>
        <DataArray type="Int64" Name="connectivity" format="ascii" RangeMin="0" RangeMax="179">
          0 1 2 3 4 5
          6 7 8 9 10 11
          12 13 14 15 16 17
          18 19 20 21 22 23
          24 25 26 27 28 29
          30 31 32 33 34 35
          36 37 38 39 40 41
          42 43 44 45 46 47
          48 49 50 51 52 53
          54 55 56 57 58 59
          60 61 62 63 64 65
          66 67 68 69 70 71
          72 73 74 75 76 77
          78 79 80 81 82 83
          84 85 86 87 88 89
          90 91 92 93 94 95
          96 97 98 99 100 101
          102 103 104 105 106 107
          108 109 110 111 112 113
          114 115 116 117 118 119
          120 121 122 123 124 125
          126 127 128 129 130 131
          132 133 134 135 136 137
          138 139 140 141 142 143
          144 145 146 147 148 149
          150 151 152 153 154 155
          156 157 158 159 160 161
          162 163 164 165 166 167
          168 169 170 171 172 173
          174 175 176 177 178 179
        </DataArray>
        <DataArray type="Int64" Name="offsets" format="ascii" RangeMin="1" RangeMax="180">
          1 2 3 4 5 6
          7 8 9 10 11 12
          13 14 15 16 17 18
          19 20 21 22 23 24
          25 26 27 28 29 30
          31 32 33 34 35 36
          37 38 39 40 41 42
          43 44 45 46 47 48
          49 50 51 52 53 54
          55 56 57 58 59 60
          61 62 63 64 65 66
          67 68 69 70 71 72
          73 74 75 76 77 78
          79 80 81 82 83 84
          85 86 87 88 89 90
          91 92 93 94 95 96
          97 98 99 100 101 102
          103 104 105 106 107 108
          109 110 111 112 113 114
          115 116 117 118 119 120
          121 122 123 124 125 126
          127 128 129 130 131 132
          133 134 135 136 137 138
          139 140 141 142 143 144
          145 146 147 148 149 150
          151 152 153 154 155 156
          157 158 159 160 161 162
          163 164 165 166 167 168
          169 170 171 172 173 174
          175 176 177 178 179 180
        </DataArray>
        <DataArray type="UInt8" Name="types" format="ascii" RangeMin="1" RangeMax="1">
          1 1 1 1 1 1
          1 1 1 1 1 1
          1 1 1 1 1 1
          1 1 1 1 1 1
          1 1 1 1 1 1
          1 1 1 1 1 1
          1 1 1 1 1 1
          1 1 1 1 1 1
          1 1 1 1 1 1
          1 1 1 1 1 1
          1 1 1 1 1 1
          1 1 1 1 1 1
          1 1 1 1 1 1
          1 1 1 1 1 1
          1 1 1 1 1 1
          1 1 1 1 1 1
          1 1 1 1 1 1
          1 1 1 1 1 1
          1 1 1 1 1 1
          1 1 1 1 1 1
          1 1 1 1 1 1
          1 1 1 1 1 1
          1 1 1 1 1 1
          1 1 1 1 1 1
          1 1 1 1 1 1
          1 1 1 1 1 1
          1 1 1 1 1 1
          1 1 1 1 1 1
          1 1 1 1 1 1
          1 1 1 1 1 1
        </DataArray>
      </Cells>
    </Piece>
  </UnstructuredGrid>
</VTKFile>
