<?xml version="1.0"?>
<VTKFile type="UnstructuredGrid" version="0.1" byte_order="LittleEndian" header_type="UInt32" compressor="vtkZLibDataCompressor">
  <UnstructuredGrid>
    <Piece NumberOfPoints="665" NumberOfCells="665">
      <PointData>
        <DataArray type="Int32" Name="id" format="ascii" RangeMin="1" RangeMax="665">
          298 133 206 385 308 625
          19 134 244 59 343 174
          406 50 123 241 49 97
          42 324 118 131 15 44
          22 3 264 196 457 459
          474 477 484 485 495 529
          530 531 318 589 592 623
          624 626 203 276 40 93
          1 245 369 386 408 78
          266 407 150 256 370 175
          54 362 117 124 109 24
          7 257 215 176 387 363
          286 207 62 119 388 246
          372 225 389 267 371 154
          373 329 106 258 84 20
          141 309 220 198 310 208
          374 161 344 299 61 277
          166 188 137 390 311 430
          432 433 434 435 436 461
          462 460 475 478 497 498
          499 500 501 502 503 504
          532 533 534 535 536 561
          562 593 594 595 596 597
          598 634 627 628 629 630
          631 632 633 75 32 313
          312 121 209 411 77 51
          391 268 177 226 148 314
          330 409 275 410 85 235
          105 325 60 315 569 186
          81 67 300 227 301 151
          92 167 129 345 221 375
          18 57 135 412 155 509
          192 160 216 364 145 346
          14 82 269 288 228 393
          26 283 348 480 89 12
          437 438 543 458 463 464
          479 505 506 507 508 537
          538 539 540 541 542 563
          565 571 599 600 601 602
          635 636 637 210 376 316
          37 317 111 222 413 247
          34 270 366 142 365 229
          90 350 156 79 367 168
          349 331 187 199 351 217
          101 236 278 332 157 2
          126 35 46 394 69 271
          115 86 415 289 200 136
          182 414 72 48 416 237
          149 352 39 120 333 13
          384 548 181 353 189 211
          99 204 341 23 113 30
          347 354 230 96 95 304
          242 439 440 441 465 481
          482 483 517 496 549 511
          512 513 514 515 516 287
          158 544 545 546 547 259
          442 560 566 567 568 564
          570 392 590 603 604 622
          638 649 640 641 642 643
          644 645 646 647 648 127
          43 279 110 418 56 417
          218 190 73 405 38 355
          280 395 6 33 223 159
          550 248 377 179 47 368
          146 305 41 87 116 91
          17 173 88 265 169 102
          306 197 243 58 466 476
          572 573 574 575 605 650
          107 238 357 396 356 11
          162 419 66 420 290 249
          334 191 212 103 138 272
          319 45 284 130 10 152
          36 467 486 487 488 489
          518 551 576 608 606 607
          651 250 285 397 185 398
          25 335 163 55 239 74
          80 147 378 260 5 291
          326 193 108 320 273 183
          140 423 261 424 132 422
          4 379 164 184 342 336
          293 231 292 9 302 213
          76 52 195 294 139 224
          443 444 445 446 447 448
          468 469 470 490 491 492
          519 520 521 552 577 578
          579 609 610 611 612 613
          614 591 652 653 654 655
          281 64 125 456 321 429
          104 251 21 29 65 282
          399 380 421 327 122 262
          170 381 232 358 400 328
          295 178 28 219 8 337
          94 83 205 401 382 338
          63 255 253 233 425 114
          234 53 383 403 201 144
          263 426 402 165 153 252
          70 171 359 296 322 194
          240 172 274 404 31 27
          360 303 427 361 100 128
          214 112 428 71 98 254
          180 16 339 323 340 143
          307 297 202 431 449 450
          451 452 453 454 455 68
          471 472 473 493 494 522
          523 524 525 526 527 528
          553 554 555 556 557 558
          559 510 580 581 582 583
          584 585 586 587 588 615
          616 617 618 619 620 621
          656 657 658 659 660 661
          662 663 664 665 639
        </DataArray>
        <DataArray type="Int32" Name="type" format="ascii" RangeMin="1" RangeMax="2">
          2 2 2 2 2 2
          1 1 2 1 2 2
          2 1 1 1 1 1
          1 1 1 1 1 1
          1 1 1 1 1 2
          1 2 2 2 1 2
          2 2 2 1 2 2
          2 2 1 2 1 1
          1 2 2 2 2 2
          2 2 1 2 2 2
          1 1 1 2 2 1
          1 2 1 2 2 1
          2 2 2 1 2 2
          2 2 2 2 2 2
          2 2 2 2 1 1
          2 2 2 2 2 2
          2 2 2 2 2 2
          1 2 2 2 2 1
          2 2 2 2 2 2
          2 2 1 2 2 2
          2 2 2 2 2 2
          2 2 2 2 2 2
          2 2 2 2 2 2
          2 2 2 2 2 2
          2 2 2 2 1 2
          2 2 2 2 2 1
          2 2 2 2 2 2
          2 2 1 2 1 2
          2 1 1 2 2 1
          1 2 2 2 2 1
          1 1 1 2 2 2
          1 1 2 2 2 2
          1 1 1 1 1 2
          1 1 2 2 2 2
          1 1 2 2 1 1
          2 2 2 1 2 2
          2 2 2 2 2 2
          2 2 2 2 2 2
          2 2 2 2 2 2
          2 2 2 2 2 2
          1 2 2 2 2 2
          1 2 1 2 1 2
          1 2 2 2 1 1
          2 2 1 2 2 1
          1 2 2 2 2 1
          1 1 1 2 2 2
          1 1 2 2 2 2
          2 2 2 1 2 2
          2 2 1 1 2 1
          1 2 2 2 2 2
          1 1 1 1 2 1
          2 2 2 1 1 1
          1 2 2 2 2 2
          2 2 2 1 2 2
          2 2 2 2 2 2
          2 2 2 2 2 2
          2 1 2 2 2 2
          2 2 1 2 2 1
          2 2 2 2 2 2
          2 2 2 2 2 2
          1 2 1 2 1 2
          1 2 2 1 1 2
          2 2 1 1 2 2
          2 2 2 1 1 1
          1 1 1 1 1 1
          1 1 1 1 1 1
          1 1 1 1 2 1
          2 2 2 2 2 2
          2 2 2 2 2 1
          2 2 2 2 2 2
          2 2 2 1 2 2
          2 1 1 1 1 1
          1 2 2 2 2 2
          2 2 2 2 2 2
          2 2 1 2 2 2
          1 2 2 1 2 2
          1 1 2 2 1 2
          1 1 2 2 2 2
          1 2 2 2 2 2
          1 2 2 2 1 2
          2 2 2 1 2 2
          2 1 2 2 2 1
          2 2 2 2 2 2
          2 2 2 2 2 2
          2 2 2 2 2 2
          2 2 2 2 2 2
          2 1 2 2 2 2
          2 2 2 2 2 2
          1 2 1 1 2 2
          2 2 2 1 2 2
          2 2 2 2 2 1
          2 2 1 1 1 2
          1 1 1 2 2 2
          2 1 2 2 2 2
          2 1 2 2 2 2
          2 2 2 2 1 2
          2 2 2 2 2 1
          2 2 2 2 1 1
          2 2 2 2 1 2
          2 2 2 2 1 2
          2 1 2 2 2 2
          1 2 2 1 2 2
          2 2 2 2 2 2
          2 2 2 2 2 2
          2 2 2 2 1 1
          2 2 2 2 2 2
          2 2 2 2 2 2
          2 2 2 2 2 2
          2 2 2 2 2 2
          2 2 2 2 2 2
          2 2 2 2 2
        </DataArray>
        <DataArray type="Float64" Name="diameter" format="ascii" RangeMin="7.8623766772e-07" RangeMax="1.9687190111e-06">
          8.9876740935e-07 1.0507277157e-06 9.8418382834e-07 9.0123452869e-07 9.5775015465e-07 8.2798870061e-07
          1.890652801e-06 1.8344882532e-06 9.0489711083e-07 1.9616828281e-06 8.7353964012e-07 8.8197262776e-07
          1.011472758e-06 1.9487964514e-06 1.651998434e-06 1.6281596619e-06 1.6276833371e-06 1.7952215179e-06
          1.7041023216e-06 1.6186393403e-06 1.6436061695e-06 1.7857867404e-06 1.8874002104e-06 1.7856008163e-06
          1.5597821669e-06 1.739998449e-06 1.6519241203e-06 1.7229375726e-06 1.581610661e-06 9.201794143e-07
          1.6473194312e-06 9.7850254716e-07 9.4496836042e-07 9.8669509832e-07 1.5628743112e-06 9.6802810452e-07
          8.8610345835e-07 9.2495769765e-07 9.3181673924e-07 1.4926774253e-06 8.8246707877e-07 8.016012403e-07
          8.2609364791e-07 8.4132553407e-07 1.6569116374e-06 8.6231165385e-07 1.575968723e-06 1.8269236312e-06
          1.9244145151e-06 8.8061367766e-07 8.1973894652e-07 9.0210322822e-07 9.7927865131e-07 1.0496489177e-06
          9.0589105067e-07 1.0441785183e-06 1.7673728728e-06 1.0026385849e-06 9.2621316507e-07 1.0525920664e-06
          1.6854765569e-06 1.6009476823e-06 1.6364300596e-06 8.9427080217e-07 9.7434115197e-07 1.8774990563e-06
          1.7873452897e-06 9.7474999776e-07 1.6968743747e-06 1.0458508037e-06 1.0486394267e-06 1.6117754086e-06
          8.418434215e-07 9.1938092049e-07 1.0332422202e-06 1.8399014646e-06 1.0561216757e-06 9.3691718492e-07
          9.6245879976e-07 8.46795544e-07 1.0416320144e-06 1.0011119657e-06 1.0496916499e-06 8.6999658338e-07
          1.0394723578e-06 9.4641067607e-07 8.5985362017e-07 7.9733968508e-07 1.8433775831e-06 1.6749533031e-06
          1.0371894802e-06 9.8405926692e-07 9.852174213e-07 9.2232299407e-07 9.8044287262e-07 9.7390686026e-07
          8.650616701e-07 8.7920191339e-07 1.0638228143e-06 9.7623197896e-07 9.5854887596e-07 8.5702135294e-07
          1.7786867547e-06 1.0506773847e-06 9.3419467649e-07 1.0566356846e-06 9.4182028705e-07 1.6644144046e-06
          8.3755216723e-07 9.6716860536e-07 7.9856212199e-07 9.7448648374e-07 1.005983531e-06 9.7330354492e-07
          9.4031560484e-07 9.5216871605e-07 1.5712727691e-06 1.0055783306e-06 9.4155933944e-07 9.7161615035e-07
          8.9438872189e-07 9.2249060846e-07 9.7954070645e-07 9.3779507917e-07 9.1221240682e-07 9.7010883658e-07
          9.2928532757e-07 9.4344414864e-07 9.0258903638e-07 8.6220704038e-07 8.547587222e-07 8.8522252346e-07
          9.2886961907e-07 8.9407533005e-07 8.4133149803e-07 8.6824094768e-07 9.2762692253e-07 8.9236878136e-07
          8.8808199575e-07 8.9255189524e-07 8.8857785576e-07 8.1631333993e-07 8.6867071017e-07 9.0086163718e-07
          8.3633739441e-07 8.5266124807e-07 8.6977694829e-07 8.6821549037e-07 1.7143979856e-06 9.0817045503e-07
          9.4563999293e-07 9.9290912632e-07 9.1099523224e-07 8.9989167396e-07 9.1718401934e-07 1.6452245685e-06
          1.0492873549e-06 1.0502073835e-06 9.6899405774e-07 8.5971618977e-07 8.6431748986e-07 9.86415994e-07
          8.7343820432e-07 8.6317552933e-07 1.6611391926e-06 9.9466836473e-07 1.7237208493e-06 9.9394073551e-07
          9.7384696966e-07 1.6772032601e-06 1.9500639453e-06 1.0254383397e-06 8.7532594773e-07 1.8204585976e-06
          1.8770532019e-06 8.9109336165e-07 9.4661644571e-07 1.0142471433e-06 9.5805151983e-07 1.7820414997e-06
          1.6462777768e-06 1.7769860694e-06 1.8816290917e-06 9.2240783775e-07 9.0232771549e-07 1.0354518868e-06
          1.8015103798e-06 1.6467325746e-06 1.0660260563e-06 8.7644426283e-07 1.0014901777e-06 9.2580706801e-07
          1.7297801421e-06 1.7704597282e-06 1.6521924274e-06 1.6386599817e-06 1.7419246672e-06 9.5836980744e-07
          1.8639386679e-06 1.8466398505e-06 1.0258424724e-06 1.0251336629e-06 9.0877805687e-07 1.0226521361e-06
          1.8285392521e-06 1.7179244613e-06 9.5785095423e-07 9.2335647217e-07 1.6028741423e-06 1.9206596695e-06
          9.9219708054e-07 1.0134651573e-06 8.9681447458e-07 1.6268556038e-06 9.5173006874e-07 9.8166862431e-07
          9.7869076797e-07 1.0027475665e-06 8.9106517313e-07 9.7242963139e-07 9.0185844121e-07 9.1834022089e-07
          8.7123675177e-07 9.5962979893e-07 9.147674339e-07 9.2635914138e-07 8.7072136219e-07 9.1790228002e-07
          8.7768151397e-07 9.3370073621e-07 8.8553865755e-07 8.7633733137e-07 8.8556317727e-07 8.5224750486e-07
          7.9665531861e-07 8.0305814324e-07 8.2808292542e-07 9.2186705175e-07 9.3417124785e-07 9.6074418115e-07
          1.6477747484e-06 9.8978766507e-07 9.2207957808e-07 8.7840174709e-07 1.0187496674e-06 8.2734212212e-07
          1.6287310915e-06 9.0440488803e-07 1.6530993935e-06 8.3640412223e-07 1.6401500305e-06 8.7528832789e-07
          1.72480504e-06 9.4659258833e-07 9.1298467744e-07 9.9179494193e-07 1.5635902277e-06 1.7761305519e-06
          8.7023196919e-07 9.191172812e-07 1.8216036172e-06 8.0240338025e-07 8.6917887467e-07 1.650736025e-06
          1.6503470063e-06 9.8056500318e-07 8.6233227053e-07 9.8339692865e-07 8.8326778237e-07 1.5293678077e-06
          1.8771719142e-06 1.8269274222e-06 1.7242453365e-06 1.0396237127e-06 9.8721611485e-07 1.0653068161e-06
          1.8843462253e-06 1.8457508176e-06 1.0441868287e-06 8.5223554845e-07 1.0150653622e-06 8.3808493027e-07
          9.230502158e-07 1.0014027304e-06 1.0583412177e-06 1.6860489359e-06 1.0508241171e-06 9.3863719247e-07
          9.7085706571e-07 9.793252887e-07 1.7855192066e-06 1.9103883095e-06 8.0579616208e-07 1.6330437279e-06
          1.7046478737e-06 8.5562248068e-07 1.0593983543e-06 8.004179568e-07 9.9130125217e-07 1.0557634438e-06
          1.472481155e-06 1.7144256934e-06 1.6647856799e-06 1.6333172152e-06 9.0170430287e-07 1.5579612071e-06
          9.6649492798e-07 9.7436994176e-07 9.1152833852e-07 1.9589538595e-06 1.7437686908e-06 1.703929132e-06
          1.6895974941e-06 9.770391884e-07 9.0024475524e-07 9.6107136921e-07 9.5815325703e-07 9.5953705606e-07
          9.5861556541e-07 9.0844422258e-07 9.3164069571e-07 1.4969988244e-06 8.5313305726e-07 9.2841984016e-07
          9.7142877494e-07 9.0183208866e-07 9.2060018268e-07 9.802762383e-07 9.2866390903e-07 9.5427519235e-07
          8.5223165978e-07 9.4977519493e-07 9.1577292364e-07 9.4314250326e-07 8.9856132686e-07 1.0506049098e-06
          1.0593352617e-06 1.510292771e-06 8.8262809421e-07 9.4559766356e-07 8.9677000719e-07 8.7905683458e-07
          8.850474766e-07 9.1889111662e-07 1.6593155612e-06 8.927810881e-07 8.8526477447e-07 1.6059213599e-06
          8.5698958938e-07 8.1336344427e-07 8.1498247597e-07 8.6304489695e-07 9.0651432149e-07 8.2681316997e-07
          8.4775424399e-07 8.7036493531e-07 9.0060467012e-07 9.1151480734e-07 8.2975080919e-07 8.7663162956e-07
          1.7779612247e-06 9.585462006e-07 1.9351613755e-06 1.0435284588e-06 1.619439374e-06 9.9189889127e-07
          1.7071686354e-06 1.0495872868e-06 9.6128383507e-07 1.6436686579e-06 1.6342509924e-06 9.3361503533e-07
          1.0213969761e-06 1.0054357691e-06 1.6477747826e-06 1.6780759317e-06 9.6538033469e-07 9.4106357552e-07
          9.413962472e-07 9.145233893e-07 8.1375526269e-07 1.7583789096e-06 1.7287614628e-06 1.6401500714e-06
          1.7419247274e-06 1.7049032654e-06 1.6492744794e-06 1.857398173e-06 1.949639799e-06 1.7054804366e-06
          1.8461108192e-06 1.7535259243e-06 1.827303319e-06 1.6750564658e-06 1.7633813991e-06 1.9048391512e-06
          1.6813319147e-06 1.8011945016e-06 1.6288720515e-06 1.9206597349e-06 1.0324576265e-06 1.521722624e-06
          8.5498700856e-07 8.8827690748e-07 8.8346279981e-07 9.0441730878e-07 8.8886234169e-07 8.9584467798e-07
          9.4099755332e-07 1.0289125916e-06 9.2359725305e-07 8.8596432784e-07 1.0646783456e-06 1.928805478e-06
          8.6311471285e-07 1.0143563296e-06 1.0317277829e-06 1.0577584899e-06 1.0014403564e-06 8.5297917187e-07
          8.4765817925e-07 1.0352911727e-06 1.005703514e-06 1.6444735388e-06 9.8577934718e-07 9.9992235471e-07
          8.7408952026e-07 1.7426537855e-06 1.7274871118e-06 1.6213620753e-06 1.8027297983e-06 1.8890385474e-06
          1.754172051e-06 1.0101648222e-06 9.1763748778e-07 9.5247676382e-07 9.4414003633e-07 9.7405548547e-07
          9.5412949153e-07 9.6222381622e-07 9.2315371676e-07 8.8687881584e-07 8.5028105935e-07 8.7319025453e-07
          8.6622021036e-07 1.060666753e-06 1.6013095698e-06 8.4631914816e-07 9.3921235711e-07 8.7316629563e-07
          1.9376359666e-06 9.2377837759e-07 9.3964378148e-07 1.7656163606e-06 9.1246401782e-07 1.0610992878e-06
          1.8126582923e-06 1.7208490148e-06 8.5899323951e-07 9.0072638934e-07 1.7044882615e-06 9.4352377768e-07
          1.6182113595e-06 1.7114433605e-06 8.6779871737e-07 1.0277545401e-06 8.4679561373e-07 1.0646529782e-06
          1.9041618768e-06 8.939783037e-07 1.0092802408e-06 9.8461809751e-07 9.9899230269e-07 1.0264346323e-06
          1.8180845375e-06 9.0857239917e-07 8.4830030874e-07 1.0443318158e-06 1.5476818457e-06 9.007051922e-07
          1.0041085148e-06 9.8672853902e-07 1.0148120651e-06 1.8429908328e-06 9.3135861868e-07 9.6965897009e-07
          1.0179724313e-06 1.7621060686e-06 1.0472889179e-06 9.9671575763e-07 1.0020091284e-06 1.7002673292e-06
          8.7469542217e-07 9.5976983579e-07 1.0314203087e-06 1.0462021507e-06 9.8569661061e-07 9.963715911e-07
          9.5584545991e-07 9.7768095291e-07 9.9393678829e-07 9.1333913687e-07 1.0280456819e-06 9.1353096117e-07
          9.8703121354e-07 9.1127927986e-07 9.4002354886e-07 9.1629183448e-07 8.4092712553e-07 9.3407048779e-07
          8.7807140464e-07 8.9642107409e-07 8.2931180299e-07 8.4311246023e-07 8.9925180069e-07 8.5512832669e-07
          8.5702776163e-07 1.5262598026e-06 8.7173922189e-07 8.6184243979e-07 8.7047441394e-07 8.2028498094e-07
          1.0049863915e-06 1.0013763583e-06 1.0424133894e-06 1.03863722e-06 9.4708401935e-07 1.0345386998e-06
          1.9687190111e-06 8.3306081406e-07 1.5587919509e-06 1.6929580147e-06 1.022176849e-06 1.0194150916e-06
          1.0505131246e-06 8.7265744658e-07 9.7666087943e-07 1.6255499748e-06 8.5828807427e-07 1.020863027e-06
          8.1824558863e-07 1.0372659689e-06 9.347824158e-07 8.5575582817e-07 1.0567708324e-06 1.5731690056e-06
          1.0309781139e-06 9.2280399308e-07 1.7410812848e-06 1.6973231369e-06 1.7869405446e-06 9.1866258053e-07
          1.7901878422e-06 1.8628841365e-06 1.6995730412e-06 9.9518419379e-07 8.8911931966e-07 9.4529458153e-07
          8.6560418668e-07 1.6784765326e-06 8.9590718934e-07 9.1595691372e-07 9.8521913365e-07 8.4952515967e-07
          1.0497185352e-06 1.6465701439e-06 1.0462924651e-06 7.8896655411e-07 8.9654202657e-07 8.9025768371e-07
          8.0552237051e-07 1.0072466154e-06 8.9043537726e-07 1.0162255103e-06 1.7975087522e-06 8.6172872453e-07
          8.6197421779e-07 8.5713717012e-07 8.6778344516e-07 8.5665455307e-07 1.0144755698e-06 1.6761917536e-06
          1.0422762963e-06 8.1432187771e-07 8.9971443796e-07 8.7334816232e-07 1.5744852143e-06 1.7442689691e-06
          8.643729532e-07 1.0556367935e-06 8.0643138441e-07 1.0624205849e-06 1.9156620823e-06 1.0207018298e-06
          9.2911654078e-07 8.9857220549e-07 1.0204662903e-06 9.8274911715e-07 1.623398549e-06 9.0643797764e-07
          9.5581722959e-07 1.8481820532e-06 9.3233219592e-07 8.5554907423e-07 8.7102695554e-07 9.6141347773e-07
          1.714506058e-06 9.5301364876e-07 9.175026876e-07 1.5954184697e-06 1.0351722005e-06 1.0125915138e-06
          1.0460511274e-06 9.6680170672e-07 9.6852210542e-07 9.3357401371e-07 9.9729245841e-07 1.0088201465e-06
          1.0166840702e-06 9.5187922663e-07 9.8463467591e-07 1.0177755208e-06 9.7770777498e-07 9.4735078557e-07
          9.2225182607e-07 9.7394708955e-07 8.8555038646e-07 9.4673290511e-07 1.6261819649e-06 1.6050889279e-06
          9.697232111e-07 8.8920813076e-07 9.1383198327e-07 9.3028268105e-07 9.6311815594e-07 9.757210927e-07
          8.7954567497e-07 9.9212821055e-07 8.5560809049e-07 9.1883964143e-07 8.9030196732e-07 9.2634771734e-07
          9.2843463351e-07 9.2108080193e-07 9.1602317076e-07 8.8975395375e-07 9.031599543e-07 8.4617812283e-07
          8.6615273441e-07 8.4459172875e-07 8.9236801584e-07 8.7920557416e-07 8.2815731643e-07 9.079266428e-07
          8.8553317621e-07 9.0480424219e-07 8.4376563306e-07 8.9961925158e-07 8.2086667611e-07 8.9577083215e-07
          8.7599420495e-07 7.8623766772e-07 8.2377989888e-07 9.0825701646e-07 8.9675419633e-07
        </DataArray>
      </PointData>
      <CellData>
      </CellData>
      <Points>
        <DataArray type="Float32" Name="Points" NumberOfComponents="3" format="ascii" RangeMin="9.7034266363e-06" RangeMax="0.0001325173854">
          2.0015068003e-05 2.3614189558e-05 4.3940235628e-07 1.8965591153e-05 2.3604121452e-05 5.0996271739e-07
          1.8207871108e-05 2.2807278583e-05 1.1481736237e-06 2.0488028895e-05 2.2763826564e-05 1.836140882e-06
          1.880369382e-05 2.338289778e-05 1.6607567659e-06 2.0780818886e-05 2.2873153284e-05 2.1215748802e-06
          4.9561876949e-06 8.6039972302e-06 1.8620859237e-06 1.2821177734e-05 1.7071999537e-05 1.7229721152e-06
          1.9614057237e-05 2.2912907298e-05 1.890747285e-06 4.0632898163e-05 1.5517185602e-05 2.2093865937e-06
          1.8990660465e-05 2.3047990908e-05 2.4669141112e-06 2.0462903194e-05 2.2943859221e-05 2.8932540772e-06
          2.0829809728e-05 2.3887150746e-05 2.314323865e-06 1.3393177142e-05 1.5488256395e-05 2.5784972877e-06
          4.2894735088e-06 8.0471045294e-06 3.813621106e-06 4.1319435695e-05 1.4905410353e-05 3.7609479477e-06
          3.1817322451e-05 8.7819116743e-06 5.1217698456e-06 4.1564482672e-05 1.5726389393e-05 5.2234076975e-06
          1.7978090909e-05 5.3942430895e-06 6.2892277128e-06 1.6459083781e-05 5.9911490098e-06 6.0564684645e-06
          1.4946292595e-06 9.259093531e-06 7.097895832e-06 3.2143700082e-05 9.155754924e-06 6.826801382e-06
          2.0522584236e-06 1.0903762814e-05 6.9487200562e-06 2.5863420888e-05 1.6637013687e-05 6.5195445131e-06
          1.4559645933e-05 8.308867109e-06 6.9674110819e-06 4.6106604714e-05 1.0794829905e-05 7.8576686064e-06
          4.66795791e-05 1.2367251657e-05 8.037983207e-06 2.5344792448e-05 1.6957905245e-05 8.1742537077e-06
          1.4430344208e-06 9.2226919151e-06 5.4827373788e-06 1.9604887711e-05 2.3654352844e-05 1.2504963252e-06
          1.4642560927e-05 9.5851000879e-06 7.9384326455e-06 1.8850101696e-05 2.2534140953e-05 4.7493901434e-07
          4.9745151045e-05 1.4091750927e-05 3.5207715428e-06 4.9616744946e-05 1.2465938198e-05 4.0407235247e-06
          3.1037998269e-05 7.5503189692e-06 5.7944621403e-06 1.998611333e-05 2.2740541681e-05 7.2016939612e-07
          1.8154161808e-05 2.3932543627e-05 1.3484069541e-06 1.8874010493e-05 2.2446969524e-05 1.7076170025e-06
          4.9786362069e-05 1.3029322872e-05 4.7988237384e-06 5.5345644796e-06 7.2657444434e-06 3.276284815e-06
          1.9226412405e-05 2.3809108825e-05 2.7931857858e-06 2.0330258849e-05 2.2107951736e-05 1.345561941e-06
          2.0665442207e-05 2.3440097721e-05 1.0971978099e-06 1.9649014575e-05 2.3725417122e-05 2.0063544071e-06
          1.3710221538e-05 3.8497411879e-05 9.1739144636e-07 2.0042760298e-05 2.4441160349e-05 2.1769351406e-06
          1.4504213141e-05 3.9867976739e-05 1.7130564629e-06 1.4058208762e-05 3.850513167e-05 2.6024054023e-06
          2.9358538086e-05 4.0717528464e-05 3.2852090044e-06 4.4964461267e-05 4.1114853957e-05 3.0433127449e-06
          4.4874122977e-05 4.069240822e-05 3.4782810872e-06 4.6629789722e-05 4.1379626055e-05 2.9717175494e-06
          4.5399181545e-05 4.2039617256e-05 3.7473744214e-06 4.6548862883e-05 4.0654813347e-05 4.4802977754e-06
          4.5266348025e-05 4.114631156e-05 3.8030486849e-06 4.639531835e-05 4.2098698032e-05 3.8715629671e-06
          3.9034130168e-05 3.9136139094e-05 4.9723435041e-06 4.4640197302e-05 3.9926730096e-05 4.4695634642e-06
          4.4648069888e-05 4.0730406909e-05 4.9504042181e-06 4.6598339395e-05 4.205431469e-05 4.873000762e-06
          3.1796676922e-05 4.8468100431e-05 4.9532186495e-06 3.0279663406e-05 4.9064223276e-05 4.7207659009e-06
          2.9850905776e-05 4.0301354602e-05 4.9506925279e-06 4.5422748371e-05 4.1580962716e-05 5.5561263252e-06
          4.2617898544e-06 3.2466316043e-05 5.8417508626e-06 3.9580172597e-05 3.7624260585e-05 5.7890474636e-06
          1.7199023205e-05 3.9774025936e-05 5.5152827372e-06 4.5591157686e-05 4.0169790736e-05 5.6843778111e-06
          1.7787120669e-05 4.138794975e-05 5.7003567235e-06 4.4749336666e-05 4.1097366193e-05 6.0357497205e-06
          4.6312983613e-05 4.1337432776e-05 5.7950383052e-06 4.6014879445e-06 2.9499966331e-05 6.021966783e-06
          4.6323220886e-06 3.1588126149e-05 6.0116794884e-06 4.4648950279e-06 3.3360454836e-05 6.7431383286e-06
          5.1456513575e-06 3.4098156902e-05 6.280793059e-06 3.1743995351e-05 4.9776164815e-05 6.1973605625e-06
          5.5284394875e-06 3.3160718885e-05 6.4129335442e-06 7.0757614594e-06 3.3512751543e-05 7.1356998887e-06
          4.5576498451e-06 3.4167784179e-05 7.2540274232e-06 3.6467652535e-05 3.9308466512e-05 6.482018307e-06
          3.6125988117e-05 4.0293896745e-05 6.6987909122e-06 4.23099209e-06 3.1955507438e-05 7.6386095316e-06
          4.8141405387e-06 3.2506399293e-05 7.0274468271e-06 6.5239951255e-06 3.2746738725e-05 7.7568574852e-06
          6.1776058828e-06 3.4181972296e-05 7.3836426964e-06 3.7621117372e-05 3.8162761484e-05 7.3811697803e-06
          3.7314195652e-05 3.9711823774e-05 6.4114619818e-06 3.7477064325e-05 4.0585575334e-05 7.418207133e-06
          6.2557592173e-06 2.9143398933e-05 7.8671318988e-06 4.3182903937e-06 2.9463242754e-05 7.6332980825e-06
          3.8090875023e-06 3.2865191315e-05 7.4960325946e-06 4.3436107262e-06 3.35670411e-05 7.9534383985e-06
          5.8526525208e-06 3.3569787774e-05 8.1187326941e-06 4.9851200856e-06 3.2084015402e-05 8.5466854216e-06
          3.7883190089e-05 3.9945516619e-05 7.792859833e-06 3.8799476897e-05 3.9772174205e-05 8.3875320342e-06
          3.7020086893e-05 4.0178216295e-05 8.3240256572e-06 3.723554255e-05 4.0946943045e-05 8.4749863163e-06
          4.9468872021e-06 3.3047785109e-05 8.8380611487e-06 3.6677840399e-05 3.9393878978e-05 9.5169170891e-06
          3.8109265006e-05 4.0020993765e-05 8.9554614533e-06 3.6099201679e-05 4.0623130189e-05 8.4741404862e-06
          5.1300708037e-06 2.9824428566e-05 9.1176143542e-06 3.729828677e-05 4.0162176447e-05 9.4833458206e-06
          3.4642049286e-05 4.0766357415e-05 9.1925894594e-06 3.5880013456e-05 4.0799288399e-05 9.4784381872e-06
          3.8077658246e-05 4.0734954382e-05 9.5341047199e-06 1.4548003492e-05 4.1070215957e-05 2.8127099085e-06
          4.6034641855e-05 4.1043116653e-05 6.5219819589e-06 4.4560893002e-06 3.1695984944e-05 6.5732856456e-06
          3.8455882532e-06 3.2072552131e-05 6.7317228059e-06 3.674864638e-05 4.097463534e-05 7.0015007623e-06
          4.1650873754e-06 3.2579522667e-05 8.4017237896e-06 4.547827848e-05 4.030817945e-05 4.7532539611e-06
          3.6694105802e-05 4.0678085497e-05 8.9819150162e-06 2.0580559067e-05 2.4485641916e-05 1.579244099e-06
          2.8974478482e-05 3.9054157241e-05 5.4659035413e-06 3.5377281165e-05 4.0346905735e-05 8.751151654e-06
          5.00006945e-06 3.3011521737e-05 5.495228379e-06 3.7450299715e-05 3.909899533e-05 7.455589639e-06
          5.0882763389e-06 3.3443815482e-05 7.3894711932e-06 5.1751667343e-06 3.4171029256e-05 7.93225081e-06
          5.274986961e-06 3.2701726013e-05 7.8911471064e-06 3.7668694858e-05 3.9363010728e-05 8.4904222604e-06
          3.8547314034e-05 3.9234291762e-05 9.0955263659e-06 3.8565383875e-05 4.0865561459e-05 8.7653652372e-06
          4.4468455599e-05 4.1629322368e-05 5.0723988352e-06 4.2184974518e-06 3.3398049709e-05 5.8690407059e-06
          4.3335517148e-06 3.4636697819e-05 6.4991240833e-06 3.8696754928e-05 3.9717000618e-05 7.4821300586e-06
          3.6806024582e-05 3.9216767618e-05 8.6586642283e-06 6.4186051532e-06 3.3550313674e-05 6.5384101617e-06
          3.7188103306e-05 4.0119226469e-05 7.1884301178e-06 4.5838707592e-05 4.0987662942e-05 3.0055368825e-06
          4.636137237e-05 4.1129984311e-05 3.7260313093e-06 4.5730383135e-05 4.2285617383e-05 5.1552992772e-06
          3.6397046642e-05 3.9341612137e-05 7.3267033258e-06 5.8700566115e-06 3.2730793464e-05 7.1976037361e-06
          3.6451874621e-05 4.0254450141e-05 7.7004742707e-06 3.1940953704e-06 3.1704468711e-05 7.0882115324e-06
          4.5126264013e-05 3.9950991777e-05 3.7754659843e-06 4.5251646952e-05 4.1193387005e-05 4.646067282e-06
          4.6754826144e-06 3.1535255403e-05 5.1761603572e-06 3.7837893615e-05 4.130828529e-05 7.6192845881e-06
          3.6911998905e-05 4.1655970563e-05 8.1591224443e-06 3.5961245885e-05 4.139993689e-05 8.1917005446e-06
          4.5332733862e-05 4.0609065763e-05 6.3814391069e-06 2.1031839424e-05 2.4105656848e-05 7.6313079944e-07
          3.5881137592e-05 7.2424285463e-05 1.4267936876e-06 3.5924189433e-05 6.844667223e-05 9.3787491551e-07
          3.4562905057e-05 6.9077403168e-05 1.408789899e-06 3.7045498175e-05 6.9425725087e-05 1.0649515616e-06
          3.6105688196e-05 7.0081332524e-05 1.5782486571e-06 3.7688845623e-05 7.0148147643e-05 1.9438339223e-06
          3.6537003325e-05 7.1389084042e-05 1.6897096202e-06 3.2370567169e-06 5.7181547163e-05 2.4399394079e-06
          3.5993154597e-05 7.0902016887e-05 2.0700863388e-06 3.7390596844e-05 7.1091424616e-05 1.937532943e-06
          3.8547401346e-05 7.0414258516e-05 2.0510376544e-06 3.7470807001e-05 6.8920977355e-05 2.9314157928e-06
          3.4967670217e-05 6.9245172199e-05 3.2287973681e-06 3.5916385968e-05 6.9794485171e-05 3.2723185086e-06
          3.7080582842e-05 7.000027108e-05 2.5731983442e-06 3.8148420572e-05 7.0720911026e-05 3.3975138649e-06
          3.4635155316e-05 7.2313123383e-05 2.551325224e-06 3.6836954678e-05 6.9475529017e-05 3.2889258819e-06
          3.4560358472e-05 7.0749578299e-05 3.2096781979e-06 3.6814941268e-05 7.1026996011e-05 3.4873839923e-06
          4.5574743126e-06 7.2930881288e-05 3.5847256186e-06 4.3992822611e-06 5.7411154557e-05 3.5812627175e-06
          1.5987330698e-05 6.7322216637e-05 3.573258482e-06 4.0856275518e-06 7.1650611062e-05 3.9434244172e-06
          2.9660608561e-05 7.3994968261e-05 6.1811156229e-06 3.5351848055e-05 7.2007685958e-05 4.1931821215e-06
          4.0024492591e-06 5.6385662901e-05 4.9696031965e-06 5.3743251556e-06 7.2580245615e-05 4.9074988056e-06
          2.6549057566e-06 7.3058399721e-05 4.6303584895e-06 3.9382657633e-06 7.392517e-05 5.062168384e-06
          2.8821144952e-05 7.3793067713e-05 6.454715276e-06 4.6412060328e-06 5.8157362218e-05 5.1344186431e-06
          2.3314409191e-05 6.5037616878e-05 5.2155273806e-06 9.2208219939e-06 6.7021981522e-05 5.0215098781e-06
          1.5420895579e-05 6.7672692239e-05 5.3804965319e-06 3.3874032397e-06 7.3145092756e-05 5.1612514653e-06
          4.5178758228e-06 7.2467919381e-05 4.7279418141e-06 5.6591256907e-06 7.3114038969e-05 5.6359363043e-06
          1.0106445188e-05 5.478973253e-05 5.5232708291e-06 9.7521624411e-06 6.8715329689e-05 5.7445477069e-06
          4.8008705562e-06 7.188544987e-05 6.5241406446e-06 4.9114714784e-06 7.3031238571e-05 6.3201086959e-06
          3.06460106e-06 7.3967406934e-05 5.5432774388e-06 5.0709686548e-06 7.3862960562e-05 5.7701527112e-06