<?xml version="1.0"?>
<VTKFile type="UnstructuredGrid" version="0.1" byte_order="LittleEndian" header_type="UInt32" compressor="vtkZLibDataCompressor">
  <UnstructuredGrid>
    <Piece NumberOfPoints="132" NumberOfCells="132">
      <PointData>
        <DataArray type="Int32" Name="id" format="ascii" RangeMin="1" RangeMax="132">
          75 50 19 59 97 42
          49 15 22 44 3 118
          123 131 93 40 1 117
          78 24 7 54 20 109
          62 106 84 61 119 124
          77 32 51 85 60 81
          105 18 92 82 67 14
          26 57 12 89 121 129
          111 64 34 37 90 46
          101 86 79 35 2 69
          115 48 72 39 13 30
          113 99 23 96 95 120
          126 110 43 56 73 33
          6 38 116 88 47 87
          91 17 41 58 102 10
          127 107 11 66 103 45
          36 130 68 55 25 80
          5 74 4 108 9 76
          52 125 132 104 21 29
          65 28 8 94 83 114
          63 53 27 31 70 16
          100 112 71 98 122 128
        </DataArray>
        <DataArray type="Int32" Name="type" format="ascii" RangeMin="1" RangeMax="2">
          2 1 1 1 1 1
          1 1 1 1 1 1
          1 1 1 1 1 1
          2 1 1 1 1 2
          2 2 1 2 1 2
          2 1 1 1 1 1
          2 1 1 1 2 1
          1 1 1 1 2 1
          2 2 1 1 1 1
          1 1 2 1 1 2
          1 1 2 1 1 1
          2 1 1 1 1 1
          1 1 1 1 2 1
          1 1 1 1 1 1
          1 1 1 1 1 1
          2 2 1 2 1 1
          1 1 2 1 1 1
          1 2 1 2 1 2
          1 2 2 1 1 1
          2 1 1 1 1 2
          2 1 1 1 2 1
          1 2 2 1 2 2
        </DataArray>
        <DataArray type="Float64" Name="diameter" format="ascii" RangeMin="8.2098489848e-07" RangeMax="1.9590178336e-06">
          1.0428606178e-06 1.9590178336e-06 1.5526440342e-06 1.6109753876e-06 1.7752490421e-06 1.720113249e-06
          1.6512739075e-06 1.5499728981e-06 1.6603870969e-06 1.8156750922e-06 1.7559489399e-06 1.6691399199e-06
          1.6310220018e-06 1.4665257474e-06 1.8065984896e-06 1.677617721e-06 1.5803698335e-06 1.6601474088e-06
          8.8149117675e-07 1.8873464654e-06 1.8037298446e-06 1.7013125017e-06 1.700974027e-06 9.8317826509e-07
          9.1615526183e-07 8.9957996567e-07 1.8744249903e-06 1.0027000768e-06 1.5109659158e-06 8.7249330193e-07
          8.7737203489e-07 1.7467245404e-06 1.7189737255e-06 1.8348997515e-06 1.6014337163e-06 1.8942601352e-06
          9.2272877452e-07 1.8276203009e-06 1.6994286155e-06 1.875327787e-06 1.0285439029e-06 1.8814514325e-06
          1.805321153e-06 1.7414401476e-06 1.8992916835e-06 1.6709505037e-06 9.4093961253e-07 1.5452335557e-06
          9.8136827715e-07 9.1446866029e-07 1.6979056146e-06 1.7009739836e-06 1.8360538971e-06 1.7049701761e-06
          1.6383199107e-06 1.87442494e-06 9.1663613617e-07 1.8037298265e-06 1.6229671939e-06 1.0214561844e-06
          1.5474649093e-06 1.6524964582e-06 9.3813799525e-07 1.8113974102e-06 1.706246829e-06 1.6912729867e-06
          9.2856189458e-07 1.6259398063e-06 1.7272532054e-06 1.6087342845e-06 1.776648996e-06 1.5688512492e-06
          1.5415732464e-06 1.5891953986e-06 1.8037298485e-06 1.6882192285e-06 9.1513241484e-07 1.6593168655e-06
          1.7009739847e-06 1.7282406964e-06 1.6010853731e-06 1.8556908582e-06 1.7613588233e-06 1.8744249383e-06
          1.8154828409e-06 1.8634560095e-06 1.7232051766e-06 1.8992916956e-06 1.5642941265e-06 1.779839397e-06
          8.2098489848e-07 8.9889655435e-07 1.5839758016e-06 1.0019786917e-06 1.7454962671e-06 1.7081680191e-06
          1.8873464874e-06 1.6298660557e-06 8.3888605183e-07 1.7459732836e-06 1.8992916884e-06 1.9240128855e-06
          1.7201132435e-06 8.4777552836e-07 1.8276203169e-06 8.9813001075e-07 1.5135029601e-06 1.001269569e-06
          1.7917846316e-06 9.0021664572e-07 8.3912428173e-07 1.6167536785e-06 1.648441844e-06 1.7174946887e-06
          8.8967793293e-07 1.7189737147e-06 1.8037298276e-06 1.8065984973e-06 1.8942601267e-06 9.6530594531e-07
          9.0001869949e-07 1.6776177274e-06 1.7713665332e-06 1.6450633513e-06 8.4940187566e-07 1.8276203223e-06
          1.5731821474e-06 8.8712412893e-07 9.8886187795e-07 1.7281066824e-06 8.8059649129e-07 8.9089993113e-07
        </DataArray>
      </PointData>
      <CellData>
      </CellData>
      <Points>
        <DataArray type="Float32" Name="Points" NumberOfComponents="3" format="ascii" RangeMin="9.7749608529e-06" RangeMax="0.00013138322654">
          1.9700000848e-05 2.3399999918e-05 9.4000000672e-07 1.3099999705e-05 1.6300000425e-05 2.140000106e-06
          4.9550094445e-06 8.5137453425e-06 2.0178206341e-06 4.075212928e-05 1.5488742065e-05 2.5468686999e-06
          4.1271257942e-05 1.5512319806e-05 4.1451303332e-06 1.7200000002e-05 5.7000002016e-06 6.1699997786e-06
          3.1475035939e-05 8.2301785369e-06 5.5684558902e-06 2.0089817099e-06 1.07805281e-05 6.8983194979e-06
          1.4600000213e-05 8.9300001491e-06 7.4399999903e-06 2.5600000299e-05 1.6800000594e-05 7.3599999268e-06
          4.6400000429e-05 1.1600000107e-05 7.9499995991e-06 1.5131198552e-06 9.3685048341e-06 6.320835837e-06
          4.9447376114e-06 7.7268823588e-06 3.3756064113e-06 3.2088606531e-05 9.0794937933e-06 6.7231230787e-06
          1.3924001905e-05 3.8714064431e-05 1.6485711285e-06 1.4458059013e-05 4.0234852349e-05 2.2705369247e-06
          2.9405133319e-05 4.0593193262e-05 3.5915199987e-06 2.9394614103e-05 3.978746463e-05 4.9818563639e-06
          4.5723889343e-05 4.1189105104e-05 4.2870356083e-06 3.9300000935e-05 3.8400001358e-05 5.3700000535e-06
          1.7500000467e-05 4.059999992e-05 5.6099997892e-06 3.1066832889e-05 4.8838821385e-05 4.9230152399e-06
          4.8594251894e-06 2.9488166547e-05 7.1577564995e-06 4.6616073632e-06 3.2764794014e-05 7.1541294346e-06
          5.3569465308e-06 3.3415148209e-05 7.1849208325e-06 3.6808614823e-05 4.0155948227e-05 7.7528229667e-06
          5.403996056e-06 2.9512897527e-05 8.8343522293e-06 3.7210418668e-05 4.0248432924e-05 8.6076724983e-06
          3.1696774386e-05 4.971080125e-05 6.1084933805e-06 4.5477318054e-05 4.1011760914e-05 5.1089405133e-06
          3.6923414882e-05 7.0402493293e-05 2.2343217552e-06 3.5305653e-05 7.2233000537e-05 2.0628333459e-06
          3.7530364807e-06 5.728787437e-05 3.188087021e-06 3.5294095142e-05 7.1347676567e-05 3.5905163713e-06
          1.5934394469e-05 6.7354972998e-05 3.7421523302e-06 4.3104064389e-06 5.7313187426e-05 4.9040877457e-06
          4.1880543904e-06 7.3255818279e-05 4.831631486e-06 9.6699995993e-06 5.4100000852e-05 5.8999999055e-06
          2.3145315936e-05 6.5405169153e-05 5.9290746321e-06 9.2619120551e-06 6.707963621e-05 5.9044909904e-06
          4.5910442168e-06 7.3348572187e-05 5.6890012274e-06 6.6154275373e-06 6.2495353632e-05 6.5639173954e-06
          2.3669044822e-05 6.39550708e-05 6.7124033194e-06 9.8201680885e-06 6.8669338361e-05 6.5546396399e-06
          5.1299998631e-06 7.0499998401e-05 7.000000096e-06 7.3081860137e-06 6.3454281189e-05 7.8676075645e-06
          3.6255063605e-05 6.9777379395e-05 2.204725206e-06 1.5473831809e-05 6.7639935878e-05 5.211602911e-06
          4.8955029342e-05 8.4077342763e-05 1.2147236248e-06 4.9623446102e-05 8.4702522145e-05 1.2443231299e-06
          9.1063575383e-06 8.3847568021e-05 1.913985443e-06 3.8539426896e-05 8.4588165919e-05 1.697756602e-06
          5.2685832088e-06 7.8698634752e-05 2.8122601634e-06 5.8135324252e-06 8.025043644e-05 3.4469112506e-06
          8.6218751676e-06 8.4147337475e-05 3.4597476315e-06 3.9083995944e-05 8.4612896899e-05 3.3743519907e-06
          7.1072563514e-06 8.6621112132e-05 3.180804697e-06 4.3299998651e-05 7.6700001955e-05 3.8200000745e-06
          3.9940685383e-05 9.1308938863e-05 3.8734956433e-06 7.8320481407e-06 8.6787935288e-05 4.7228168114e-06
          2.5005148927e-05 8.9349283371e-05 4.5460674301e-06 4.5619879529e-05 7.8031262092e-05 5.3218464018e-06
          2.9329074096e-05 7.4392839451e-05 6.2097446971e-06 4.7343139158e-05 7.6706026448e-05 6.298430435e-06
          2.5414321499e-05 8.9665780251e-05 6.0662709984e-06 4.7705529141e-05 9.5523493655e-05 6.6892334871e-06
          2.907212729e-05 7.4208030128e-05 7.0662467806e-06 1.1951596207e-05 7.5987780292e-05 6.9884681579e-06
          1.2462750419e-05 7.4572504673e-05 7.7529884948e-06 4.8020458053e-05 7.7643584518e-05 7.5730613389e-06
          4.7694218665e-05 9.4657152658e-05 8.184161743e-06 4.6166285756e-05 7.9530771472e-05 5.4938000176e-06
          3.8496462366e-05 9.1876463557e-05 3.6521962556e-06 6.3458486693e-05 1.4868689505e-05 2.338779268e-06
          5.6400000176e-05 2.2800000806e-05 2.2599999738e-06 6.3955805672e-05 1.3491733625e-05 3.0825997328e-06
          5.0986760471e-05 1.3342986676e-05 3.9773403842e-06 5.8740715758e-05 5.4010611166e-06 4.4419798542e-06
          8.0139427155e-05 1.8888165869e-05 4.2877568376e-06 9.3605645816e-05 8.0526033344e-06 4.923513643e-06
          5.8267523855e-05 5.6938397393e-06 5.9517260524e-06 9.3018323241e-05 1.6097897969e-05 5.541959581e-06
          5.4458614613e-05 1.7027450667e-05 5.5875561884e-06 8.0683996202e-05 1.8912898668e-05 5.9643521126e-06
          9.3594098871e-05 7.1680897236e-06 6.4498017309e-06 7.0900001447e-05 1.2700000298e-05 6.1400000959e-06
          9.356377268e-05 1.7651120288e-05 6.1771906985e-06 8.7400003395e-05 3.549999974e-06 6.6600000537e-06
          5.5104948842e-05 1.7922116967e-05 6.8038798418e-06 9.3100003141e-05 2.3900000087e-05 7.4300000961e-06
          5.0632450439e-05 1.3261435925e-05 3.2235373055e-06 5.3008760005e-05 4.8555983085e-05 2.0431309622e-06
          5.7257777371e-05 3.8489000872e-05 2.55425266e-06 5.3410258261e-05 4.8648395023e-05 2.8973299777e-06
          5.7765664678e-05 3.8512065657e-05 4.1179132495e-06 7.2800001362e-05 4.9700000091e-05 5.4199999795e-06
          8.859999798e-05 2.5900000765e-05 8.0899999375e-06 8.7449247076e-05 4.968596113e-05 5.6479748309e-06
          7.4606439739e-05 7.3986615462e-05 1.3535699281e-06 5.2232768212e-05 5.3387862863e-05 2.0572563244e-06
          9.2800000857e-05 5.4000000091e-05 2.6299999263e-06 5.2790703194e-05 5.3413201385e-05 3.7750032789e-06
          7.4399998994e-05 7.1700000262e-05 3.7800000428e-06 7.9318218923e-05 7.0385030995e-05 3.9459378058e-06
          7.6600001194e-05 5.6500000937e-05 4.8699998842e-06 7.5608826592e-05 5.7455996284e-05 5.2432737903e-06
          8.7932850874e-05 5.10630598e-05 6.2111762418e-06 7.6010182966e-05 5.7548379118e-05 6.0971706262e-06
          7.9899997218e-05 6.6799999331e-05 7.1700001172e-06 7.3972209066e-05 7.3393421189e-05 1.3254846181e-06
          7.9082987213e-05 7.0215843152e-05 4.7300395636e-06 7.4357849371e-05 8.6170461145e-05 1.4478238199e-06
          5.0700000429e-05 7.5800002378e-05 1.5699999949e-06 7.4856485298e-05 8.4789855464e-05 2.1936145913e-06
          9.7623691545e-05 8.7888969574e-05 2.5876809104e-06 8.2333033788e-05 8.9087872766e-05 3.9580868361e-06
          7.1800001024e-05 9.4000002719e-05 4.5400001909e-06 7.0924004831e-05 8.9314067736e-05 5.4085712691e-06
          8.2890408521e-05 8.9113185822e-05 5.6740877881e-06 8.6055464635e-05 7.7777753177e-05 6.4047430897e-06
          8.6723041022e-05 7.8402139479e-05 6.4343053054e-06 7.145806012e-05 9.0834852017e-05 6.0305369516e-06
          7.5350464613e-05 9.4016169896e-05 6.5522167461e-06 6.4105406636e-05 8.9813896921e-05 7.4557951848e-06
          5.4397340136e-05 9.5508643426e-05 7.1508397923e-06 9.1593174147e-05 8.3592793089e-05 7.7887716543e-06
          7.6013071521e-05 9.4933355285e-05 7.7991608123e-06 9.2524045613e-05 8.4576153313e-05 7.9564033513e-06
          9.2902730103e-05 8.4646664618e-05 8.8013111963e-06 6.4094347181e-05 8.8966728072e-05 8.9176373876e-06
          9.7377509519e-05 8.771190187e-05 3.4083018363e-06 5.3583298723e-05 9.569581016e-05 7.0671699177e-06
        </DataArray>
      </Points>
      <Cells>
        <DataArray type="Int64" Name="connectivity" format="ascii" RangeMin="0" RangeMax="131">
          0 1 2 3 4 5
          6 7 8 9 10 11
          12 13 14 15 16 17
          18 19 20 21 22 23
          24 25 26 27 28 29
          30 31 32 33 34 35
          36 37 38 39 40 41
          42 43 44 45 46 47
          48 49 50 51 52 53
          54 55 56 57 58 59
          60 61 62 63 64 65
          66 67 68 69 70 71
          72 73 74 75 76 77
          78 79 80 81 82 83
          84 85 86 87 88 89
          90 91 92 93 94 95
          96 97 98 99 100 101
          102 103 104 105 106 107
          108 109 110 111 112 113
          114 115 116 117 118 119
          120 121 122 123 124 125
          126 127 128 129 130 131
        </DataArray>
        <DataArray type="Int64" Name="offsets" format="ascii" RangeMin="1" RangeMax="132">
          1 2 3 4 5 6
          7 8 9 10 11 12
          13 14 15 16 17 18
          19 20 21 22 23 24
          25 26 27 28 29 30
          31 32 33 34 35 36
          37 38 39 40 41 42
          43 44 45 46 47 48
          49 50 51 52 53 54
          55 56 57 58 59 60
          61 62 63 64 65 66
          67 68 69 70 71 72
          73 74 75 76 77 78
          79 80 81 82 83 84
          85 86 87 88 89 90
          91 92 93 94 95 96
          97 98 99 100 101 102
          103 104 105 106 107 108
          109 110 111 112 113 114
          115 116 117 118 119 120
          121 122 123 124 125 126
          127 128 129 130 131 132
        </DataArray>
        <DataArray type="UInt8" Name="types" format="ascii" RangeMin="1" RangeMax="1">
          1 1 1 1 1 1
          1 1 1 1 1 1
          1 1 1 1 1 1
          1 1 1 1 1 1
          1 1 1 1 1 1
          1 1 1 1 1 1
          1 1 1 1 1 1
          1 1 1 1 1 1
          1 1 1 1 1 1
          1 1 1 1 1 1
          1 1 1 1 1 1
          1 1 1 1 1 1
          1 1 1 1 1 1
          1 1 1 1 1 1
          1 1 1 1 1 1
          1 1 1 1 1 1
          1 1 1 1 1 1
          1 1 1 1 1 1
          1 1 1 1 1 1
          1 1 1 1 1 1
          1 1 1 1 1 1
          1 1 1 1 1 1
        </DataArray>
      </Cells>
    </Piece>
  </UnstructuredGrid>
</VTKFile>
