<?xml version="1.0"?>
<VTKFile type="UnstructuredGrid" version="0.1" byte_order="LittleEndian" header_type="UInt32" compressor="vtkZLibDataCompressor">
  <UnstructuredGrid>
    <Piece NumberOfPoints="1701" NumberOfCells="1701">
      <PointData>
        <DataArray type="Int32" Name="id" format="ascii" RangeMin="1" RangeMax="1701">
          792 477 298 1166 133 1051
          791 624 668 19 991 887
          623 206 938 793 529 308
          1167 936 605 50 59 134
          625 385 1380 1114 531 244
          937 1434 626 1047 190 766
          666 343 1168 1050 1113 989
          406 589 669 745 123 845
          241 484 174 990 794 318
          550 49 457 888 97 495
          846 42 324 15 44 22
          131 118 474 3 1048 264
          196 1295 1296 1297 1298 1299
          1300 1378 1379 1430 1432 1433
          1460 530 1488 1490 1541 1574
          1591 1652 1653 1654 1002 1179
          203 75 459 847 844 886
          40 276 460 992 1053 592
          748 1052 93 369 593 430
          993 386 994 842 1170 245
          408 1115 627 1226 1 939
          594 671 749 461 78 889
          266 795 407 1054 890 150
          117 628 1055 532 175 1057
          672 54 362 629 497 797
          675 892 711 24 475 256
          798 796 370 670 891 1056
          595 109 286 533 996 940
          225 7 1118 257 1234 389
          673 387 215 995 674 363
          1172 388 1058 561 207 1119
          1109 106 676 1059 1227 800
          1116 1171 124 119 799 634
          677 433 434 597 371 141
          1173 62 534 1229 1117 562
          1122 1120 895 633 176 432
          1121 501 998 893 941 999
          246 848 373 849 329 596
          498 894 535 1000 258 435
          1174 630 20 84 750 997
          267 1060 1175 713 499 805
          804 500 712 372 1228 802
          310 803 632 1062 1001 1177
          898 1176 801 154 1235 502
          1125 208 598 850 806 478
          1061 901 504 1123 631 1124
          436 751 198 678 220 309
          896 536 897 752 374 188
          899 277 161 1126 462 807
          166 1230 344 808 503 942
          1233 1231 61 390 900 1063
          299 1178 679 137 1232 311
          680 1301 1302 1303 1304 1305
          1306 1307 1308 1309 1310 1311
          1312 1313 1372 1381 1382 1383
          1384 1385 1386 1387 1388 1389
          1390 1391 1392 1393 1169 1431
          1435 1436 1437 1438 1439 1440
          1441 1442 1484 1492 1493 1494
          1495 1496 1497 1498 1499 1489
          1491 1542 1543 1544 1545 1546
          1547 1548 1549 1550 1551 1552
          1592 1593 1594 1595 1596 1597
          1598 1599 1600 1601 1655 1656
          1657 1658 1659 1660 1661 1662
          1663 1664 313 1245 507 943
          1180 851 809 209 121 635
          636 753 1003 1247 177 391
          268 1181 946 32 505 599
          312 945 944 1236 682 51
          754 537 479 506 1005 411
          563 1248 1065 1004 811 1064
          681 1066 77 1127 947 810
          1006 601 275 538 813 1069
          325 746 755 226 1067 330
          812 85 409 948 1182 600
          463 60 148 314 1237 508
          235 714 105 540 1238 410
          315 1068 1239 756 186 300
          852 539 81 167 1110 1070
          1007 221 950 853 345 854
          541 437 949 547 151 92
          1246 565 67 375 903 907
          227 904 18 1165 1224 57
          759 438 542 902 1240 412
          1071 602 509 824 569 192
          160 216 129 145 135 1072
          637 1129 1128 856 814 1074
          364 82 683 228 1241 905
          716 718 1073 715 855 14
          26 283 883 1244 717 346
          951 464 113 857 480 1562
          393 89 1243 288 269 1008
          764 906 1190 458 348 543
          12 690 1314 1315 1316 1317
          1318 1319 1502 1321 1322 1323
          1324 1373 1394 1395 1396 1397
          1398 1399 1242 1401 1404 1443
          1444 1445 1446 1447 1448 1449
          347 1485 1500 1501 1512 1538
          1553 1554 1555 1556 1557 1558
          1559 1561 1602 1603 1604 1605
          1606 1610 1608 1609 237 1649
          1665 1666 1667 1668 859 908
          544 1009 909 566 511 111
          37 761 1130 317 229 719
          316 210 953 510 860 911
          858 1077 546 247 34 910
          816 638 366 1076 1075 413
          222 1010 545 90 270 1457
          640 481 242 365 862 567
          513 1184 1513 912 955 1250
          956 367 350 1320 1260 168
          439 1185 641 351 603 762
          79 818 1013 392 1186 187
          1249 199 101 1511 817 1079
          236 1011 643 604 331 1251
          1012 1080 1261 514 157 515
          2 126 259 1082 217 142
          69 1187 1402 1014 349 649
          278 332 568 1112 564 230
          863 1083 35 46 560 642
          289 864 394 684 644 1131
          271 958 1252 959 1081 115
          1111 622 155 757 760 149
          758 517 686 822 496 934
          86 440 819 685 1188 1253
          960 1259 483 820 414 287
          1085 72 1133 416 821 482
          720 415 1132 200 721 1254
          1084 1256 182 763 1191 1015
          914 765 691 913 352 1262
          961 39 1255 441 865 1016
          645 1189 136 333 13 384
          442 301 353 1257 687 647
          516 590 48 120 1263 688
          23 158 1405 1258 181 465
          204 646 189 1086 1135 866
          211 549 689 1017 96 341
          30 571 648 1137 99 1136
          95 548 823 962 570 710
          1456 1458 354 304 1325 1326
          1327 1328 1329 1330 1331 1332
          1333 1334 1335 1560 1374 1400
          1403 1450 1451 1452 1453 1454
          1455 1134 1486 1503 1504 1505
          1506 1507 1508 1509 1510 1539
          1564 1565 1566 1567 1568 1569
          1570 1571 1572 952 1563 1183
          1611 1612 1613 1614 1615 1616
          1617 1618 1619 1620 1621 1622
          1623 1648 1607 1669 1670 1671
          1672 1673 1674 1701 279 1018
          1265 1264 1192 127 867 789
          43 723 418 466 572 692
          1138 56 417 110 218 355
          1139 395 405 73 476 38
          573 1461 915 722 1193 1140
          868 767 6 1019 1020 650
          280 33 825 869 574 223
          575 1267 965 248 179 47
          368 1266 963 964 41 146
          747 305 159 377 87 91
          17 173 88 265 935 169
          116 306 58 197 243 102
          884 1294 1336 1337 1338 1375
          1406 1407 1408 1409 1459 485
          1487 1514 1573 1624 1625 1650
          1675 1676 10 518 107 1194
          606 724 396 238 916 11
          1141 870 357 1087 693 486
          1021 1142 918 607 290 917
          1143 1195 1088 871 576 1196
          966 334 1144 419 1145 1410
          843 1022 1089 162 1023 1525
          919 1090 420 487 694 768
          191 249 651 608 872 103
          726 138 826 827 1268 212
          1091 770 489 272 551 1517
          467 772 319 45 284 130
          1049 1679 36 152 1339 1340
          1341 1342 1462 1463 1464 1465
          1466 1470 1515 1516 1575 1576
          1577 1578 1583 1626 1627 1651
          1677 1678 185 920 742 1281
          285 1024 398 1093 695 725
          519 1279 250 443 652 1197
          224 356 790 696 1025 577
          397 1094 609 1269 25 1026
          444 828 967 1198 55 612
          873 335 921 968 610 163
          1270 488 80 147 874 468
          1271 260 611 922 74 697
          988 193 727 923 1096 1146
          378 1027 1028 1147 1148 5
          552 422 1280 1272 578 1095
          423 1029 730 445 1199 291
          969 183 1149 326 320 4
          379 1097 164 108 654 1151
          1203 261 1200 424 1273 273
          653 490 446 184 1201 591
          302 970 520 613 579 773
          132 829 971 700 831 728
          140 614 972 1030 1274 777
          1150 830 231 1275 832 775
          774 1152 342 9 293 924
          336 1153 448 213 729 76
          778 52 447 698 1276 731
          491 1204 1277 294 779 470
          292 1278 699 521 925 776
          973 833 139 1202 195 492
          1205 469 780 1343 1344 1345
          1346 1347 1348 1349 1350 1376
          1411 1412 1413 1414 1415 1416
          66 1467 1468 1469 1473 1471
          1472 1518 1519 1520 1521 1522
          1523 1524 1582 769 771 1540
          1579 1580 1581 655 1590 1628
          1629 1630 1631 1632 1633 1634
          1635 1680 1688 1682 1683 1684
          1685 1686 1687 1092 1206 449
          781 743 1209 701 1098 450
          21 1371 376 104 1647 1099
          251 734 125 784 709 875
          1154 471 64 1207 429 1031
          65 1283 1282 783 782 1208
          733 29 639 122 656 974
          581 68 281 1284 527 1210
          321 580 667 399 876 702
          262 736 170 239 421 327
          156 975 1211 1212 553 554
          1155 1100 380 1287 657 400
          735 282 451 1285 381 1286
          926 737 877 358 328 658
          1032 1288 703 834 232 452
          927 472 1289 295 878 1213
          1225 28 219 523 582 1033
          979 976 980 738 522 977
          8 929 615 785 1216 978
          338 661 555 583 1214 178
          94 205 705 659 401 1215
          1217 1101 337 382 63 1037
          83 53 255 1038 556 836
          253 618 1036 1290 704 1039
          835 144 114 928 1034 402
          786 454 404 1157 1158 383
          1102 453 1035 359 1103 983
          665 981 660 425 201 584
          234 837 263 617 1291 1156
          194 274 930 1292 663 839
          664 153 31 431 879 252
          585 982 70 1219 787 403
          455 233 1161 1040 931 473
          1041 1218 426 165 172 706
          662 741 1293 708 1222 27
          360 1104 619 1159 171 707
          1162 427 616 296 558 739
          984 1044 240 214 1106 71
          428 361 528 557 100 1105
          586 740 303 1220 788 1160
          838 744 840 881 1223 112
          1221 525 588 98 985 180
          880 885 128 1042 16 493
          621 339 143 932 323 1043
          1107 732 933 1045 1046 254
          559 322 620 882 841 524
          340 987 1163 526 307 587
          986 1108 297 494 202 456
          1164 815 957 1351 1352 1353
          1354 1355 1356 1357 1358 1359
          1360 1361 1362 1363 1364 1365
          1366 1367 1368 1369 1370 1377
          1417 1418 1419 1420 1421 1422
          1423 1424 1425 1426 1427 1428
          1429 1078 1474 1475 1476 1477
          1478 1479 1480 1481 1482 1483
          861 1526 1527 1528 1529 1530
          1531 1532 1533 1534 1535 1536
          1537 954 512 1584 1585 1586
          1587 1588 1589 1636 1637 1638
          1639 1640 1641 1642 1643 1644
          1645 1646 1689 1690 1691 1692
          1693 1694 1695 1696 1697 1698
          1699 1700 1681
        </DataArray>
        <DataArray type="Int32" Name="type" format="ascii" RangeMin="1" RangeMax="2">
          2 2 2 2 2 2
          2 2 2 1 2 2
          2 2 2 2 2 2
          2 2 2 1 1 1
          2 2 2 2 2 2
          2 2 2 1 2 2
          1 2 2 2 2 2
          2 1 2 1 1 2
          1 2 2 2 2 2
          2 1 1 2 1 1
          2 1 1 1 1 1
          1 1 1 1 1 1
          1 2 2 2 2 2
          2 2 2 1 2 2
          2 2 2 2 2 2
          2 2 2 2 2 2
          1 2 2 2 2 2
          1 2 2 2 2 2
          2 2 1 2 2 1
          2 2 2 1 2 2
          2 2 2 2 1 2
          2 2 2 2 2 2
          2 2 2 2 2 1
          1 2 2 2 2 2
          2 1 1 2 2 2
          2 2 2 1 1 2
          2 2 2 2 2 2
          2 2 2 2 2 2
          2 1 2 2 2 2
          2 2 1 2 2 1
          2 2 2 2 2 2
          1 2 2 2 2 2
          2 2 2 1 2 2
          2 2 2 2 2 2
          2 2 2 2 2 2
          2 2 2 2 2 2
          2 2 2 2 2 2
          2 2 2 2 2 2
          2 2 2 2 2 2
          2 2 1 1 2 2
          2 2 2 2 2 2
          2 2 2 2 2 2
          2 2 2 2 2 2
          2 2 2 2 2 2
          2 2 2 2 2 2
          2 2 2 2 2 2
          2 2 2 2 2 2
          2 2 2 2 2 2
          2 2 2 2 2 2
          1 2 2 2 2 2
          2 2 2 2 2 2
          2 2 2 2 2 2
          2 2 2 2 2 2
          2 2 2 2 2 2
          2 2 1 2 2 2
          2 2 2 2 2 2
          2 2 2 2 2 1
          2 2 2 2 2 2
          2 2 1 2 2 2
          2 2 2 2 2 2
          2 2 2 2 2 2
          2 2 2 2 2 2
          2 2 2 2 2 2
          2 2 2 2 2 2
          2 2 2 2 2 2
          2 2 2 2 2 2
          2 2 2 2 2 2
          2 2 2 2 2 2
          2 2 2 1 2 2
          2 2 2 2 2 1
          2 2 2 2 2 2
          2 2 2 2 2 2
          2 2 2 2 2 2
          2 2 1 2 2 2
          1 1 2 2 2 2
          2 1 2 2 2 2
          2 1 2 2 2 2
          2 2 2 2 2 2
          2 2 2 2 1 2
          2 2 1 1 1 2
          2 2 2 2 2 2
          2 2 2 2 1 1
          2 2 2 2 2 2
          2 2 1 1 1 1
          2 2 2 2 2 2
          2 2 2 2 2 1
          1 1 1 1 2 2
          2 2 2 2 2 2
          1 1 2 2 2 2
          2 2 2 2 2 1
          1 1 1 2 2 2
          2 2 2 2 2 2
          2 1 2 2 2 2
          2 2 2 1 2 2
          1 2 2 2 2 2
          2 2 2 2 2 2
          2 1 2 2 2 2
          2 2 2 2 2 2
          2 2 2 2 2 2
          2 1 2 2 2 1
          2 2 2 2 2 2
          2 2 2 2 2 2
          2 2 2 2 2 1
          2 2 2 2 2 2
          2 2 2 2 2 2
          1 2 2 2 2 2
          2 2 2 2 2 2
          2 2 2 2 1 2
          2 2 1 2 2 2
          2 2 2 1 2 2
          2 2 1 1 2 2
          2 2 2 2 2 2
          2 1 2 2 2 1
          2 2 2 2 2 2
          2 2 2 2 2 1
          2 2 1 2 2 2
          2 2 2 2 2 2
          2 2 2 2 2 2
          1 1 2 2 1 2
          2 2 2 2 2 2
          2 2 2 1 2 2
          2 2 1 1 1 2
          2 2 2 2 2 2
          2 2 2 2 2 1
          1 1 2 2 2 2
          2 2 2 2 1 1
          1 2 2 2 2 2
          2 2 2 2 2 2
          2 2 2 2 2 2
          2 2 2 2 2 2
          2 2 2 2 2 2
          2 2 2 2 2 2
          2 1 2 2 2 2
          2 2 2 2 1 1
          2 2 2 2 2 2
          2 1 1 1 2 2
          1 2 2 2 2 2
          1 2 2 2 2 2
          2 2 2 2 1 1
          1 2 2 2 1 2
          1 2 2 2 2 1
          2 2 2 1 2 2
          2 2 2 2 2 2
          2 2 2 2 1 2
          2 2 2 2 2 2
          2 2 1 2 2 2
          2 2 2 2 2 1
          2 2 2 2 2 2
          2 2 2 2 2 2
          2 2 2 2 2 2
          2 2 2 2 2 2
          2 2 2 2 2 2
          2 2 2 2 2 2
          2 2 2 2 2 1
          1 2 2 2 2 2
          2 1 2 1 1 2
          2 2 1 2 1 1
          2 2 2 2 2 2
          2 2 1 2 2 2
          2 1 2 2 2 2
          2 2 2 2 1 1
          1 2 2 2 1 1
          1 1 2 2 1 1
          1 1 1 1 1 1
          1 1 1 1 1 1
          1 1 2 2 2 1
          2 2 2 2 2 2
          1 2 2 2 2 1
          2 2 1 2 2 2
          2 2 2 2 2 1
          2 2 2 2 2 2
          2 2 2 2 2 2
          2 2 2 2 2 2
          2 2 2 2 2 2
          1 2 2 2 2 2
          2 2 2 2 2 2
          2 2 2 2 2 1
          2 2 2 2 2 2
          2 2 2 2 2 2
          2 2 2 1 1 1
          1 2 1 1 2 2
          2 2 2 2 2 2
          2 2 2 2 2 2
          2 2 2 2 2 1
          2 2 2 2 2 2
          1 2 2 2 2 2
          2 2 2 2 2 2
          1 2 1 2 2 2
          2 2 2 2 1 2
          2 2 2 2 1 2
          2 2 2 2 2 2
          2 2 1 1 2 2
          2 2 2 2 2 2
          1 1 2 2 2 2
          2 2 2 2 2 1
          2 2 2 2 2 2
          2 2 2 2 2 2
          2 2 2 1 2 1
          2 2 2 2 2 2
          2 2 2 2 2 2
          2 2 2 2 2 1
          2 2 2 2 2 2
          2 2 2 2 2 2
          1 2 2 2 2 2
          2 2 2 2 2 2
          2 2 1 1 2 2
          2 2 2 2 2 2
          2 1 2 2 2 2
          2 2 2 2 2 2
          2 2 2 2 2 2
          2 2 2 2 2 2
          2 2 2 2 2 2
          2 2 2 2 2 1
          2 2 2 2 2 2
          2 2 2 2 2 2
          2 2 2 2 2 2
          2 2 2 2 2 1
          2 2 2 2 1 2
          2 2 2 2 2 2
          2 2 2 2 2 2
          2 2 2 2 2 2
          2 2 2 2 2 2
          1 2 2 1 2 2
          2 2 2 2 2 2
          2 2 2 2 2 2
          2 2 2 2 2 2
          2 1 2 2 2 2
          2 2 2 2 1 2
          2 2 1 2 2 2
          2 2 2 2 2 1
          2 2 2 2 2 2
          2 2 2 2 2 2
          2 2 2 2 2 2
          2 2 2 2 1 2
          2 2 2 2 2 2
          2 2 2 2 2 2
          1 1 1 2 2 2
          2 2 2 2 2 2
          1 2 2 2 2 2
          2 2 2 2 2 2
          1 1 2 2 2 2
          2 2 2 2 2 2
          1 1 1 2 2 2
          2 2 2 2 2 2
          2 2 2 2 2 2
          2 2 2 2 2 2
          2 2 2 2 2 2
          2 2 2 2 2 2
          2 2 2 2 2 2
          1 2 2 2 2 2
          2 1 1 1 2 2
          2 2 2 2 2 2
          2 2 2 2 2 2
          2 2 2 2 2 2
          2 2 2 2 2 1
          2 2 2 2 2 2
          2 2 2 2 2 2
          2 2 2 2 2 2
          2 2 1 2 1 2
          2 2 2 2 2 2
          2 2 2 2 2 2
          2 2 2 1 2 2
          2 1 2 2 1 2
          2 2 2 2 2 2
          2 2 2 2 2 2
          2 2 2 2 2 2
          2 2 2 2 1 2
          2 2 2 2 2 2
          2 2 2 2 2 2
          2 2 2 2 2 2
          2 2 2 2 2 2
          2 2 2 2 2 1
          2 2 2 2 2 2
          2 2 2 2 2 2
          2 2 2 2 2 2
          2 2 2 2 2 2
          2 2 2 2 2 2
          2 2 2 2 2 2
          2 2 2 2 2 2
          2 2 2 2 2 2
          2 2 2 2 2 2
          2 2 2 2 2 2
          2 2 2 2 2 2
          2 2 2
        </DataArray>
        <DataArray type="Float64" Name="diameter" format="ascii" RangeMin="7.7499035353e-07" RangeMax="1.9692980366e-06">
          9.0623668321e-07 9.19415638e-07 9.7189655675e-07 9.0933350567e-07 9.9044565796e-07 9.3682456233e-07
          9.7554977885e-07 9.0940016083e-07 1.0100295763e-06 1.6280520084e-06 1.0124830447e-06 8.6989460995e-07
          9.4706074364e-07 9.0161561022e-07 8.6216445423e-07 9.1925120214e-07 9.4018014425e-07 8.593676566e-07
          1.0038208676e-06 8.7628468019e-07 8.1087365169e-07 1.657988638e-06 1.7322739129e-06 1.5832566755e-06
          1.0101748925e-06 1.0349431593e-06 8.7893008087e-07 9.7677125494e-07 1.0107934485e-06 8.6166140743e-07
          9.9493460939e-07 8.6889285522e-07 9.8600221287e-07 1.659696907e-06 9.1722924937e-07 9.8656625808e-07
          1.6784597769e-06 1.0490859977e-06 9.0655152928e-07 9.7567467986e-07 9.6645446004e-07 1.0470582784e-06
          9.1245918625e-07 1.6353337374e-06 9.8439506989e-07 1.729667155e-06 1.8098811526e-06 9.4668694923e-07
          1.7837641003e-06 8.3868572982e-07 9.9948961552e-07 9.9366191991e-07 8.9735432516e-07 9.3888439117e-07
          9.3789669162e-07 1.7832422921e-06 1.732766382e-06 1.0252879715e-06 1.9667922061e-06 1.7122394217e-06
          1.0302898365e-06 1.8669646972e-06 1.7733339512e-06 1.6449955667e-06 1.9562520703e-06 1.708851739e-06
          1.9564557619e-06 1.800686857e-06 1.8047550065e-06 1.9062914531e-06 1.637383707e-06 1.8097998094e-06
          1.8876000676e-06 8.8535571438e-07 9.1811598582e-07 9.1310727741e-07 8.8255686611e-07 9.6603298694e-07
          9.0598816239e-07 9.2467224534e-07 8.6042173372e-07 1.606944611e-06 9.2382362515e-07 8.7930293055e-07
          8.7713421137e-07 9.9943192599e-07 8.8517965583e-07 8.8461293812e-07 8.1393947652e-07 8.7537804774e-07
          7.9347374232e-07 8.1459429509e-07 8.7600538077e-07 8.5150644343e-07 1.0522382569e-06 9.5272687865e-07
          1.8152639263e-06 8.1008887e-07 8.5797139361e-07 9.2167044173e-07 9.1251880757e-07 1.0463950968e-06
          1.726585231e-06 9.3607995084e-07 1.0327178357e-06 9.925130935e-07 1.0122007671e-06 1.0511367835e-06
          9.4035504687e-07 8.1114758736e-07 1.5922861577e-06 9.6613333001e-07 1.0457705597e-06 1.8234837447e-06
          9.7119150415e-07 1.0450220373e-06 9.7713448999e-07 1.5845476874e-06 9.4648951466e-07 9.7635840632e-07
          8.5667315726e-07 1.0041151835e-06 1.0320443923e-06 8.8171395244e-07 1.753674475e-06 1.0040561114e-06
          9.5500662157e-07 8.8907678835e-07 9.3210464201e-07 1.0414289189e-06 9.215894604e-07 8.2468831116e-07
          1.0415548626e-06 9.0194744371e-07 9.4037946399e-07 9.9204909368e-07 9.2605251698e-07 1.9362820637e-06
          1.7928249326e-06 9.0982711493e-07 7.9760315441e-07 7.9436705413e-07 9.7493508097e-07 1.0363935731e-06
          9.1155064946e-07 1.8465588195e-06 1.7539514567e-06 9.9747048308e-07 1.0260210155e-06 9.2893935875e-07
          9.5970264326e-07 9.0888031475e-07 9.2442582876e-07 1.657935034e-06 1.7214405194e-06 9.2655817662e-07
          8.8020318642e-07 8.58651985e-07 1.0334088477e-06 9.2822446433e-07 1.0227678767e-06 1.0035254386e-06
          9.1586683563e-07 9.393063762e-07 9.0900693948e-07 8.4836951615e-07 9.5209536325e-07 9.7076910373e-07
          9.1844367272e-07 1.9581632341e-06 9.6887020578e-07 1.0254706254e-06 9.7315200959e-07 8.5867026833e-07
          9.9319772038e-07 9.534709727e-07 1.85904595e-06 1.0176487956e-06 9.4385363402e-07 1.7658140089e-06
          1.0134244201e-06 9.1273561051e-07 1.0214931485e-06 8.7357895765e-07 1.0445033645e-06 1.0354297714e-06
          1.6064302968e-06 9.8698671468e-07 9.1681507429e-07 1.0430243562e-06 9.2596814724e-07 9.173859657e-07
          9.2672631585e-07 9.380429793e-07 1.0017041504e-06 1.5843497632e-06 8.2110017833e-07 8.4642076907e-07
          1.0023171168e-06 8.7085852667e-07 9.2283645124e-07 8.3123817007e-07 9.0031530303e-07 1.0160684563e-06
          9.9253514258e-07 9.0654785514e-07 8.7923410836e-07 9.620641557e-07 1.004068561e-06 1.0406460418e-06
          9.8103696136e-07 1.0369996992e-06 8.1546015261e-07 9.1305954751e-07 8.9557149514e-07 9.3939640196e-07
          9.5978972401e-07 8.7698462794e-07 9.5035880692e-07 8.7029419924e-07 8.19940716e-07 8.8398780341e-07
          8.6796248809e-07 9.1299256516e-07 9.2433708715e-07 8.7555128574e-07 1.0093338048e-06 8.4979894213e-07
          8.9980207666e-07 1.0308589028e-06 9.7521674598e-07 9.9124693732e-07 8.9961339615e-07 1.0460486105e-06
          9.5311157679e-07 8.9850879952e-07 1.8350298637e-06 1.5683008485e-06 9.2680202467e-07 9.6936479548e-07
          9.0218609904e-07 9.5373411989e-07 9.0949650873e-07 9.3047797447e-07 9.6989955178e-07 8.9929743003e-07
          9.0825373383e-07 9.9721406758e-07 9.4114222562e-07 8.5692628874e-07 9.2669438467e-07 1.0261135186e-06
          9.2863159498e-07 8.3980832407e-07 1.015722652e-06 8.0494221032e-07 9.7185388861e-07 9.0709441692e-07
          8.8299864575e-07 9.194457833e-07 9.5790732908e-07 1.0378089886e-06 9.7856174366e-07 8.2096243707e-07
          9.9155608324e-07 8.0585309665e-07 1.0275702663e-06 8.2655959295e-07 8.9989360437e-07 9.3298123831e-07
          9.1291453485e-07 1.0223042231e-06 8.4359216422e-07 1.0265286681e-06 9.9052907696e-07 9.2480269032e-07
          1.004655649e-06 8.0765223261e-07 1.0212041592e-06 9.921917905e-07 8.4430139783e-07 7.7873359289e-07
          9.3173353897e-07 9.5198481877e-07 1.0259288376e-06 9.8299539809e-07 1.0451746506e-06 9.7836946966e-07
          1.0008231114e-06 9.1782026507e-07 9.3343880747e-07 9.7187293264e-07 1.0004441386e-06 8.4292639916e-07
          1.948677233e-06 9.0596231088e-07 9.6782949061e-07 9.1002343382e-07 7.9668148934e-07 1.0144990903e-06
          8.8507126072e-07 8.7437088242e-07 9.1944601656e-07 9.064570894e-07 8.7690170362e-07 9.9572370205e-07
          8.6716227194e-07 9.3420710431e-07 9.9608584829e-07 9.2424627258e-07 9.6868040838e-07 8.4001044535e-07
          9.7426391469e-07 9.284122804e-07 8.9863308034e-07 9.3379071698e-07 9.6345688288e-07 9.3928264434e-07
          9.2907629e-07 9.568289737e-07 9.0379974258e-07 9.4788586071e-07 9.2918236616e-07 9.1544857649e-07
          9.0301708082e-07 8.8188994827e-07 1.6361019565e-06 9.0117574192e-07 9.0457301852e-07 8.7369327467e-07
          8.7728685906e-07 9.3562122703e-07 9.2595257063e-07 9.1303736934e-07 8.9405173126e-07 9.144837429e-07
          8.8700032749e-07 8.8834355289e-07 8.93700339e-07 9.1523212492e-07 1.0044380041e-06 1.6151452323e-06
          8.5823887722e-07 8.3794261241e-07 8.3707870468e-07 9.1914905295e-07 8.2555438418e-07 9.2108111998e-07
          8.5579703853e-07 9.1755655325e-07 1.5849182051e-06 8.2669617442e-07 8.2311481297e-07 8.3981658708e-07
          9.2561130978e-07 9.0722069211e-07 8.2634421692e-07 8.9358200844e-07 8.2856166659e-07 8.7869869404e-07
          8.5521993313e-07 8.6448498083e-07 8.9097149868e-07 8.5250681103e-07 8.6032165529e-07 8.0264228888e-07
          8.6408178137e-07 8.7299273799e-07 8.4451479169e-07 9.0628417156e-07 9.0166944772e-07 8.533184964e-07
          8.8145091478e-07 8.4238386672e-07 9.0501407664e-07 8.2603468341e-07 8.4913366751e-07 8.8248913394e-07
          8.351355167e-07 8.1670334476e-07 7.89804961e-07 8.7055398531e-07 8.6086175603e-07 8.5532933754e-07
          8.8063994575e-07 8.2826648013e-07 8.5554940724e-07 8.0915065836e-07 8.6247938301e-07 8.7133578117e-07
          8.8924949246e-07 8.7390701617e-07 1.0055687411e-06 9.8041559019e-07 1.0462318573e-06 8.1909288659e-07
          9.1409102277e-07 8.2334113316e-07 9.7000382718e-07 9.8685039706e-07 8.1397283624e-07 8.5039835432e-07
          9.7402555406e-07 8.8617876907e-07 1.0309763283e-06 8.827409461e-07 8.5723317024e-07 8.9674355409e-07
          9.3816052093e-07 9.4243080318e-07 8.261253082e-07 1.8782442887e-06 9.9192192765e-07 1.0167990349e-06
          1.0432066173e-06 1.042371281e-06 8.3375788761e-07 9.5239668067e-07 9.7760061238e-07 1.8024599119e-06
          8.5383589614e-07 8.2804982774e-07 1.0419925329e-06 1.0060457642e-06 1.0080192518e-06 1.0075530739e-06
          9.1282709445e-07 9.6543417889e-07 9.8222294788e-07 1.0489171962e-06 7.9051156041e-07 1.0401778326e-06
          9.2704252159e-07 1.0135816794e-06 9.7538107468e-07 1.0132805158e-06 1.0011796987e-06 9.1621204362e-07
          1.0350756741e-06 9.881558273e-07 1.8198955145e-06 9.7120720144e-07 9.0247241482e-07 1.0130790124e-06
          1.8374948263e-06 1.6089982269e-06 9.1895508059e-07 9.5032756803e-07 1.0316462635e-06 1.0139093968e-06
          8.7415400417e-07 1.8884581639e-06 1.0111427118e-06 8.952303881e-07 8.9417426412e-07 9.8919734279e-07
          1.034097527e-06 1.7743188959e-06 9.4033367091e-07 9.5574011639e-07 9.1957618488e-07 9.7312669102e-07
          8.3125545445e-07 8.5334580662e-07 8.9456489793e-07 1.0028297581e-06 9.1759367696e-07 9.0699462213e-07
          9.7974940431e-07 9.6198116785e-07 9.0996260467e-07 1.005406247e-06 1.6701477133e-06 1.0463048384e-06
          8.6656237841e-07 8.3862297461e-07 1.7011933802e-06 1.946813951e-06 1.5336119807e-06 9.8948333894e-07
          9.0746562922e-07 8.713946571e-07 9.5592080409e-07 9.2736726262e-07 8.164298725e-07 8.8400004916e-07
          8.7990828515e-07 9.0770480638e-07 8.7201312723e-07 8.9547878922e-07 1.9523525382e-06 1.8036138046e-06
          9.2214133746e-07 1.0134243399e-06 9.5183217034e-07 8.9143815403e-07 1.0284290219e-06 8.8046285301e-07
          8.5951614301e-07 8.0824544176e-07 1.5528597713e-06 1.556824146e-06 1.7114202857e-06 1.8041120408e-06
          9.5584955435e-07 8.5882485721e-07 1.0200341701e-06 1.0362732081e-06 9.1752006984e-07 9.4304864787e-07
          9.727370901e-07 9.1333152464e-07 1.0363610133e-06 8.7620611826e-07 1.0370256126e-06 1.895096567e-06
          1.9396639034e-06 1.8100937389e-06 1.7272858305e-06 1.908401715e-06 9.877921734e-07 1.0140449998e-06
          9.6904298567e-07 1.0311367789e-06 9.1907157764e-07 8.3473014696e-07 9.2783140567e-07 9.6332396226e-07
          1.7952679755e-06 1.5656149261e-06 9.7881931583e-07 8.1676546645e-07 9.478456502e-07 8.4348467219e-07
          9.3350998439e-07 8.8756481792e-07 1.0511304508e-06 1.031850009e-06 9.0015303907e-07 1.5187190275e-06
          1.5815097775e-06 1.8821077987e-06 1.7416942618e-06 8.7286758981e-07 9.9879764407e-07 8.712475054e-07
          1.0092627332e-06 8.6866823682e-07 9.6772772207e-07 1.0504596859e-06 1.0396573635e-06 8.5225311284e-07
          9.9194837997e-07 1.7560620239e-06 8.8830803166e-07 8.50756709e-07 9.5398842861e-07 1.0100231197e-06
          9.8171654546e-07 1.0029249318e-06 9.8301291002e-07 1.7823354638e-06 9.1080043992e-07 1.0430779521e-06
          1.5918197472e-06 9.6586963895e-07 8.5360433372e-07 9.6545689366e-07 9.2966323382e-07 9.1396043322e-07
          9.763440535e-07 9.3380759852e-07 8.745886814e-07 9.4413199239e-07 9.7225016765e-07 8.7669867132e-07
          8.5772858617e-07 1.643982851e-06 9.6350273294e-07 9.0568495173e-07 9.2560939182e-07 8.6381419725e-07
          9.3835583948e-07 8.940691646e-07 8.807388766e-07 8.6760102191e-07 8.772601164e-07 9.4100903744e-07
          9.328155056e-07 8.6851989702e-07 8.9700821888e-07 9.3517729942e-07 8.4489446966e-07 9.0477627117e-07
          8.6715611094e-07 1.5984314112e-06 8.6957473405e-07 8.7602216163e-07 8.2261513647e-07 1.4850032683e-06
          9.0747788217e-07 8.9582824716e-07 8.6668677481e-07 8.1708490674e-07 8.1930142558e-07 8.191980494e-07
          8.3990636887e-07 8.2145163563e-07 8.7577026861e-07 8.1829675602e-07 7.9629394399e-07 8.7247331567e-07
          8.0627289045e-07 8.3996131278e-07 8.8005748653e-07 8.4961336722e-07 1.0417926336e-06 1.5799313597e-06
          8.4985909753e-07 8.870821759e-07 8.554270139e-07 8.4936020912e-07 8.5379716966e-07 8.0781989424e-07
          8.3460082372e-07 1.0186769794e-06 8.5750234051e-07 1.0032215013e-06 1.0413445432e-06 1.0410052047e-06
          1.8052538024e-06 9.0851922491e-07 1.0129075407e-06 8.6346296007e-07 9.24303154e-07 8.8188323477e-07
          9.0447520088e-07 9.0636862166e-07 9.7422208295e-07 8.9076779796e-07 9.3917327562e-07 8.4383201588e-07
          8.3405045576e-07 1.0034417107e-06 1.0025852611e-06 8.904935894e-07 1.7843901416e-06 1.0310953058e-06
          9.1053369728e-07 9.4829363659e-07 1.8110873435e-06 1.0061109097e-06 1.0409649076e-06 1.0043929852e-06
          1.0089292488e-06 9.5587888291e-07 9.8125258047e-07 1.889645952e-06 9.1022974572e-07 8.8422811618e-07
          9.8303943939e-07 1.0298025027e-06 1.8510736497e-06 1.796900362e-06 9.0370252723e-07 1.0011128592e-06
          8.5125305358e-07 9.1432941972e-07 8.3840439793e-07 8.7782173968e-07 9.9210110983e-07 8.9349238561e-07
          1.0232510541e-06 1.7130237231e-06 9.1650001288e-07 9.7153881253e-07 9.7289621192e-07 1.9458766407e-06
          1.0422452438e-06 9.7722614635e-07 9.7049157197e-07 9.679683292e-07 8.3231708937e-07 1.0483650558e-06
          9.7602375672e-07 9.7277631027e-07 8.7358944178e-07 8.9209670372e-07 9.5456341825e-07 1.6461838005e-06
          8.7987495681e-07 9.0773991402e-07 1.8080719251e-06 8.1982748654e-07 8.1426093688e-07 9.9444081457e-07