<?xml version="1.0"?>
<VTKFile type="UnstructuredGrid" version="0.1" byte_order="LittleEndian" header_type="UInt32" compressor="vtkZLibDataCompressor">
  <UnstructuredGrid>
    <Piece NumberOfPoints="383" NumberOfCells="383">
      <PointData>
        <DataArray type="Int32" Name="id" format="ascii" RangeMin="1" RangeMax="383">
          133 206 75 19 134 174
          244 59 50 123 241 97
          49 42 118 131 15 44
          22 3 196 264 276 298
          308 324 343 203 93 40
          1 245 78 150 256 175
          54 117 176 124 24 7
          257 215 109 119 20 207
          62 154 246 106 225 84
          141 220 258 198 208 161
          137 166 188 61 266 267
          277 286 299 309 310 311
          329 344 362 363 369 370
          371 372 373 374 209 121
          77 32 177 148 226 235
          51 85 60 105 186 227
          81 259 151 167 129 67
          221 155 18 92 288 192
          160 216 145 135 14 82
          57 189 228 26 158 348
          89 12 268 269 275 237
          283 287 300 312 313 314
          315 325 330 345 346 364
          375 210 111 222 37 247
          34 142 90 156 199 168
          229 79 187 236 217 46
          101 157 2 126 35 86
          69 182 115 136 48 200
          72 149 39 120 278 211
          13 99 204 30 23 230
          96 95 242 270 271 289
          181 301 304 316 317 331
          332 333 341 349 350 351
          352 353 354 113 347 365
          366 367 376 43 127 110
          218 190 56 73 33 159
          223 248 6 38 179 146
          47 87 116 91 17 173
          88 41 169 102 58 197
          243 265 279 280 305 306
          318 355 368 377 107 238
          162 11 66 249 191 138
          212 103 45 130 10 152
          36 272 284 290 319 334
          357 356 250 185 125 55
          25 163 239 80 147 74
          260 5 193 108 132 183
          140 4 231 164 261 184
          9 195 76 213 52 139
          224 273 285 291 292 293
          294 302 320 326 335 336
          342 378 379 64 104 68
          21 29 251 65 122 262
          170 232 28 178 219 8
          94 83 205 63 255 233
          234 114 53 201 144 263
          165 153 252 70 171 253
          194 240 31 27 128 172
          100 254 180 112 16 214
          71 202 98 143 274 282
          281 295 296 297 303 307
          321 322 323 327 328 337
          338 339 340 358 359 360
          361 380 381 382 383
        </DataArray>
        <DataArray type="Int32" Name="type" format="ascii" RangeMin="1" RangeMax="2">
          2 2 2 1 1 2
          2 1 1 1 1 1
          1 1 1 1 1 1
          1 1 1 1 2 2
          2 1 2 1 1 1
          1 2 2 1 2 2
          1 1 2 2 1 1
          2 1 2 1 1 2
          2 2 2 2 2 1
          2 2 2 2 2 2
          2 1 2 2 2 2
          2 2 2 2 2 2
          2 2 1 1 2 2
          2 2 2 2 2 2
          2 1 2 2 2 2
          1 1 1 2 1 2
          1 2 1 1 1 2
          2 2 1 1 2 1
          1 1 1 2 1 1
          1 2 2 1 2 2
          1 1 2 2 1 2
          1 2 2 2 2 2
          2 1 2 2 2 1
          2 2 2 2 1 2
          1 2 1 2 2 1
          2 2 1 2 1 1
          1 2 1 1 1 1
          2 2 1 2 1 2
          2 2 1 1 2 2
          1 1 1 1 1 2
          1 1 1 2 2 2
          2 2 1 2 2 2
          2 2 1 2 2 2
          2 2 2 2 2 1
          1 1 2 1 2 1
          1 2 1 2 1 2
          2 2 1 1 1 1
          1 1 1 1 1 1
          1 1 1 1 1 1
          1 1 2 2 1 1
          2 2 1 2 2 2
          2 1 2 2 2 2
          2 1 1 1 1 1
          1 2 1 2 2 2
          2 2 2 2 2 1
          1 2 2 1 1 2
          2 1 1 2 2 2
          1 1 2 2 2 2
          1 2 2 2 1 2
          1 2 1 2 2 2
          2 2 2 1 2 2
          1 2 2 2 1 2
          1 1 2 2 2 2
          2 2 1 2 1 1
          1 1 1 2 1 2
          2 2 1 2 2 2
          2 1 2 2 2 2
          1 2 1 1 2 2
          1 2 2 2 1 2
          2 2 1 2 2 2
          2 2 2 2 2 1
          2 2 2 1 1 2
          2 2 2 2 2 2
          2 2 2 2 2
        </DataArray>
        <DataArray type="Float64" Name="diameter" format="ascii" RangeMin="7.9999858599e-07" RangeMax="1.9628640348e-06">
          9.6413267297e-07 9.5594340489e-07 9.8729377878e-07 1.8019734941e-06 1.7484432824e-06 1.0493982784e-06
          8.9134627328e-07 1.8696719248e-06 1.8573899594e-06 1.8929376993e-06 1.5517923516e-06 1.7110183133e-06
          1.9164417614e-06 1.624172977e-06 1.9371767404e-06 1.7020260555e-06 1.7988734481e-06 1.7018488514e-06
          1.9270183841e-06 1.6583854199e-06 1.6421247637e-06 1.5744421303e-06 1.0164492402e-06 9.1049267621e-07
          8.9941126094e-07 1.5427185579e-06 8.5521911641e-07 1.5791957345e-06 1.7412334775e-06 1.9470159287e-06
          1.8341516342e-06 8.7143952959e-07 1.0555254167e-06 1.6844758765e-06 9.7027727042e-07 1.0295160947e-06
          1.6064208412e-06 1.9267401963e-06 8.1521945909e-07 1.060946482e-06 1.789436695e-06 1.7035115133e-06
          1.0094248961e-06 1.6172840511e-06 9.3696837013e-07 1.7536025838e-06 1.5963911698e-06 9.1102088371e-07
          8.0198044656e-07 1.0598928339e-06 8.9086567361e-07 8.7712445495e-07 1.0598906758e-06 1.7569156585e-06
          9.9962926984e-07 9.3378893046e-07 1.005326863e-06 9.3088277525e-07 9.0347550385e-07 8.4068410001e-07
          9.4973228899e-07 1.6952590852e-06 9.780460192e-07 9.1779354664e-07 1.0178461535e-06 1.0133761654e-06
          1.044486881e-06 1.0024974878e-06 9.0053002212e-07 9.2061217401e-07 9.3976682894e-07 9.3778776976e-07
          9.3926805591e-07 8.2582476515e-07 1.5258567151e-06 1.536176576e-06 8.4011916433e-07 9.1112618652e-07
          8.147786748e-07 9.1269368346e-07 8.0580502979e-07 8.5871770828e-07 9.2109272792e-07 9.226387656e-07
          1.0440392965e-06 1.6339857406e-06 1.0145438766e-06 8.7154336319e-07 1.025207986e-06 9.2778832282e-07
          1.5680568381e-06 1.6428713183e-06 1.8585980107e-06 9.0099100372e-07 1.7350716721e-06 1.0489685661e-06
          1.7890117688e-06 9.9538548624e-07 1.6984564999e-06 1.6936381925e-06 1.7933730258e-06 9.0177109642e-07
          8.9019870158e-07 9.6619678055e-07 1.7170121987e-06 1.5690606381e-06 9.5152808669e-07 1.6486463961e-06
          1.6874179564e-06 1.5746978605e-06 1.6602213137e-06 1.0123675275e-06 1.776512366e-06 1.7600249238e-06
          1.5694941136e-06 1.0001929727e-06 8.6122330869e-07 1.7427733161e-06 8.7409777269e-07 9.0713675631e-07
          1.9392780255e-06 1.8305729173e-06 1.03654479e-06 1.0228218779e-06 1.5832250007e-06 1.0618714446e-06
          1.6373468073e-06 9.1563021136e-07 9.0705764745e-07 9.1093859332e-07 9.3551450074e-07 9.5965998928e-07
          9.6350146611e-07 1.5985356017e-06 8.5424200227e-07 8.7747303826e-07 8.9545059642e-07 1.5618001565e-06
          7.9999858599e-07 9.3327852544e-07 9.1235636901e-07 8.4578667859e-07 1.5704874139e-06 1.0353341769e-06
          1.5523369745e-06 1.0188765019e-06 1.643904662e-06 8.9117979832e-07 8.3572173611e-07 1.6928228095e-06
          8.9202801803e-07 9.2841947118e-07 1.7361629961e-06 1.0117135625e-06 1.5733097855e-06 1.6433712054e-06
          1.9014075332e-06 8.7089889805e-07 1.8835894031e-06 1.7891249104e-06 1.7412370916e-06 1.7591775899e-06
          9.5121378564e-07 9.3208933626e-07 1.7959627149e-06 1.0180171952e-06 1.9178605854e-06 9.4311018312e-07
          8.2052280221e-07 9.2835995139e-07 1.7017710944e-06 1.8207833262e-06 1.047124508e-06 9.8595604257e-07
          1.5564473279e-06 1.8870394041e-06 1.6340121469e-06 1.9628640348e-06 1.5567079768e-06 8.7768804267e-07
          1.8670709456e-06 1.6619788281e-06 1.6103484718e-06 1.0076443981e-06 1.0322239685e-06 9.9710522438e-07
          1.0287584512e-06 9.0779873302e-07 1.6240078983e-06 9.2010897135e-07 9.4914085418e-07 9.1131951507e-07
          9.3260142304e-07 8.3667220641e-07 1.5867004377e-06 8.5916693278e-07 9.3413204726e-07 8.30339238e-07
          9.3379535896e-07 8.3967118992e-07 8.9651542663e-07 8.4714689088e-07 8.9326816902e-07 1.5632203309e-06
          1.5755623042e-06 1.4902514789e-06 8.860401647e-07 1.6945675989e-06 1.0252776369e-06 1.8443944279e-06
          1.6270954651e-06 1.0165690082e-06 1.9593198729e-06 1.050450025e-06 1.9257762632e-06 8.8690387159e-07
          9.4813509124e-07 8.8331374325e-07 1.5704874287e-06 1.5575979595e-06 1.6759037839e-06 1.6602213567e-06
          1.6476755035e-06 1.7702786334e-06 1.8581937453e-06 1.6254864596e-06 1.7595207029e-06 1.6712784166e-06
          1.7415953485e-06 1.5719167954e-06 1.6806716209e-06 1.815494432e-06 1.8305729639e-06 1.7167111453e-06
          1.5524713067e-06 1.5964894851e-06 9.6831297189e-07 9.5645161506e-07 1.6249363537e-06 1.6024705921e-06
          9.0971539717e-07 8.8538323493e-07 1.5632203458e-06 8.3206572467e-07 9.2775167785e-07 1.0476093167e-06
          8.7543233717e-07 1.8383366532e-06 9.5746394143e-07 1.0348169421e-06 1.0254703118e-06 9.5925754284e-07
          9.5537453162e-07 1.5673410389e-06 1.6609162124e-06 1.8915961563e-06 1.7181744181e-06 1.8004349353e-06
          1.6718942172e-06 9.8393003405e-07 1.6464609237e-06 9.5738869293e-07 9.0017084381e-07 8.3851247088e-07
          8.7027087518e-07 8.2732786626e-07 1.0515853829e-06 9.8986615287e-07 1.0583841738e-06 1.6828017613e-06
          1.8467529487e-06 8.7675519649e-07 1.0210748166e-06 1.7276372327e-06 1.6401341778e-06 9.9627583194e-07
          8.5802519746e-07 1.6245408079e-06 1.6311696832e-06 8.8222679645e-07 1.0059510574e-06 1.0285822173e-06
          1.8148489257e-06 1.7328089572e-06 1.0248581431e-06 8.4034932315e-07 9.9870667633e-07 9.990228994e-07
          1.7565470448e-06 9.9992350197e-07 9.4697839666e-07 9.3379031173e-07 1.679456103e-06 9.7680985948e-07
          1.620517852e-06 1.0282519005e-06 1.526201623e-06 9.1477662137e-07 9.5050844084e-07 9.3875723348e-07
          9.6613043573e-07 9.6019379956e-07 9.7118157258e-07 1.5423106431e-06 9.3815972848e-07 8.597857517e-07
          1.4750892499e-06 8.4589786645e-07 8.7372172283e-07 9.8416514999e-07 1.8763780907e-06 9.9111239974e-07
          1.913154881e-06 1.6135513986e-06 1.0580021289e-06 8.0476467519e-07 9.0937265431e-07 9.779453716e-07
          1.0621419852e-06 9.045894727e-07 1.6594174809e-06 9.2603805727e-07 1.6177117653e-06 1.7031257621e-06
          1.7062207538e-06 1.7755072863e-06 1.6198561554e-06 8.8346645808e-07 1.5997491513e-06 1.0407695838e-06
          8.2065743399e-07 8.7676326153e-07 1.947015947e-06 1.0207302368e-06 8.6517436801e-07 1.0259478001e-06
          1.0406322293e-06 1.7131982648e-06 8.9471595346e-07 1.062848127e-06 1.0120936774e-06 8.9305814744e-07
          1.5975715172e-06 1.0425508251e-06 1.9092338823e-06 1.6624556485e-06 1.0300999095e-06 9.9323512398e-07
          1.825809724e-06 8.782367224e-07 8.9867105809e-07 9.2560451975e-07 1.7614947678e-06 9.6489949348e-07
          9.2641139174e-07 9.2214871056e-07 1.5472545354e-06 9.9055922152e-07 1.0327089097e-06 1.0129012341e-06
          1.0006203895e-06 9.9124051864e-07 9.0553217926e-07 9.5495758127e-07 1.0043945964e-06 1.6340887307e-06
          8.8056841793e-07 9.8461103989e-07 8.7275662046e-07 1.5493050616e-06 1.4993809687e-06 9.0241779548e-07
          9.1871192334e-07 8.7439696376e-07 8.7731547837e-07 8.4143235191e-07 8.753546186e-07 8.7116049963e-07
          8.3327339638e-07 8.8832148963e-07 8.160839982e-07 8.7628501933e-07 8.1200041396e-07
        </DataArray>
      </PointData>
      <CellData>
      </CellData>
      <Points>
        <DataArray type="Float32" Name="Points" NumberOfComponents="3" format="ascii" RangeMin="9.7618326979e-06" RangeMax="0.00013202024001">
          1.9198256268e-05 2.3584818337e-05 4.7147975124e-07 1.873650217e-05 2.2827358407e-05 7.7197734072e-07
          2.0478591978e-05 2.3837035769e-05 1.1544814242e-06 4.9559257604e-06 8.5839410531e-06 1.896693675e-06
          1.2833291294e-05 1.7038459191e-05 1.7410905002e-06 2.0284327547e-05 2.2867294319e-05 1.786270218e-06
          1.9342989617e-05 2.2845870262e-05 1.6149006115e-06 4.0633061872e-05 1.5516141502e-05 2.2089764116e-06
          1.3381062672e-05 1.552179674e-05 2.560378789e-06 4.9438212955e-06 7.6566875578e-06 3.4967333704e-06
          4.1259732825e-05 1.5112116671e-05 3.7602283101e-06 4.1564482672e-05 1.5726389393e-05 5.2234076975e-06
          3.1427814974e-05 8.1648131527e-06 5.4795891629e-06 1.7941234546e-05 5.4087258832e-06 6.2835802055e-06
          1.4760255453e-06 9.2628743005e-06 6.2776357481e-06 3.2135827496e-05 9.144860087e-06 6.8119902608e-06
          2.0460761334e-06 1.0886157725e-05 6.9415200414e-06 2.5851657483e-05 1.6644291463e-05 6.557076631e-06
          1.4600000213e-05 8.9300001491e-06 7.4399999903e-06 4.612021803e-05 1.0832196494e-05 7.861953236e-06
          2.5356555852e-05 1.695062565e-05 8.1367215898e-06 4.6665962145e-05 1.2329885067e-05 8.0336985775e-06
          2.0303439669e-05 2.3929293093e-05 2.0999925709e-06 2.0088313249e-05 2.3370666895e-05 4.4907159236e-07
          1.8554455892e-05 2.3417855118e-05 1.4478264347e-06 1.6495938326e-05 5.9766662162e-06 6.0621159719e-06
          1.916286601e-05 2.3316448278e-05 2.3184179554e-06 1.3710221538e-05 3.8497411879e-05 9.1739144636e-07
          1.4084446775e-05 3.86145839e-05 2.5196306979e-06 1.4506847947e-05 4.0402079321e-05 2.2925598842e-06
          2.9406050089e-05 4.0663388063e-05 3.4703930396e-06 4.5652068366e-05 4.0978098696e-05 3.367047384e-06
          4.6343844588e-05 4.1024792154e-05 3.90325431e-06 3.9046244638e-05 3.9102596929e-05 4.9904620028e-06
          4.5025521104e-05 4.038303814e-05 4.5573933676e-06 4.6157514589e-05 4.1904222599e-05 4.5315237003e-06
          3.1759820558e-05 4.8482583225e-05 4.9475715969e-06 2.9393699151e-05 3.9717269829e-05 5.102983323e-06
          4.4955824706e-05 4.1092880565e-05 5.6425124058e-06 4.5976034016e-05 4.1565996071e-05 5.4843021644e-06
          3.9568058128e-05 3.765780275e-05 5.7709294197e-06 1.721263834e-05 3.9811391616e-05 5.5195678215e-06
          4.5634365961e-05 4.0709335735e-05 5.9009398683e-06 1.7773505533e-05 4.1350580432e-05 5.6960716392e-06
          4.6521799959e-06 3.2673877286e-05 5.8215096033e-06 3.1743995351e-05 4.9776164815e-05 6.1973605625e-06
          4.6638651838e-06 2.9545804864e-05 7.6824298958e-06 4.6618006309e-06 3.3191481634e-05 6.4179989749e-06
          5.0683647714e-06 3.3877382521e-05 6.3726070039e-06 5.7725314946e-06 3.2954718336e-05 6.9925076787e-06
          6.6173729465e-06 3.3642209019e-05 6.9429520408e-06 3.7233319745e-05 3.9785649278e-05 7.3334936133e-06
          3.6431767512e-05 3.9920010749e-05 6.8526746873e-06 6.1606192503e-06 2.9178712794e-05 7.899965567e-06
          4.1908447201e-06 3.2837018807e-05 7.8381790445e-06 5.5068694564e-06 3.3862277633e-05 7.7478243838e-06
          3.7063124182e-05 4.0679384256e-05 7.2400903264e-06 5.0770208873e-06 3.2455129258e-05 8.1106154539e-06
          3.8501559175e-05 3.9765283873e-05 8.0906102085e-06 3.6852670746e-05 4.0961880586e-05 8.4100129243e-06
          3.5198390833e-05 4.063191227e-05 9.0491139417e-06 5.0887433645e-06 2.9707147405e-05 9.1585043265e-06
          3.6915698729e-05 4.0408274799e-05 9.4650413303e-06 3.8112382754e-05 4.0026305214e-05 8.8484102889e-06
          4.5281671191e-05 4.1455601604e-05 4.3236632337e-06 3.9557617129e-06 3.2060477679e-05 7.2736002039e-06
          3.6150460801e-05 4.0773174987e-05 8.9511077022e-06 4.4842004172e-06 3.177464896e-05 6.1048735915e-06
          3.7144287489e-05 3.9662434574e-05 8.9523919087e-06 4.6672762437e-06 3.3590120438e-05 7.5476364145e-06
          3.7594152673e-05 3.9928709157e-05 8.1096368376e-06 3.8024041714e-05 4.0602950321e-05 9.5448076536e-06
          3.7536799937e-05 3.8965485146e-05 7.4536892498e-06 4.9054242481e-06 3.2971933251e-05 8.7497010099e-06
          3.0316519769e-05 4.9049740483e-05 4.7264134082e-06 4.6105556066e-06 2.9500815799e-05 6.1174118855e-06
          4.5138353016e-05 4.0509647079e-05 3.8367320485e-06 4.4937591156e-05 4.1165985749e-05 4.7995954446e-06
          4.7488783821e-06 3.2709442166e-05 7.107383226e-06 4.5597689677e-06 3.4130494896e-05 6.9916936809e-06
          6.0597690208e-06 3.401588765e-05 7.4334225246e-06 3.6924382584e-05 4.0219529183e-05 8.0392437667e-06
          3.5771132389e-05 6.9975780207e-05 1.6992444216e-06 3.6734843889e-05 6.9703295594e-05 1.817156658e-06
          3.6406636355e-05 7.0872534707e-05 1.8439009182e-06 3.5901637602e-05 7.2352013376e-05 1.4443706959e-06
          3.8169757318e-05 7.0572918048e-05 2.4154703624e-06 3.5267457861e-05 6.9625435572e-05 2.7678165679e-06
          3.7030680687e-05 6.9395580795e-05 2.75419643e-06 3.6439188989e-05 7.0924688771e-05 3.0220071494e-06
          3.2498112432e-06 5.7185003243e-05 2.454949481e-06 3.4893619159e-05 7.074293535e-05 3.1638066957e-06
          1.5969684682e-05 6.7333137849e-05 3.6295564314e-06 4.0994332267e-06 7.3118244472e-05 3.5451319036e-06
          3.5350105463e-05 7.2008071584e-05 4.1937641981e-06 4.0844133764e-06 7.365248166e-05 4.3504533096e-06
          4.0025115595e-06 5.6385626522e-05 4.9695840971e-06 5.0686358009e-06 7.357596769e-05 4.5386377678e-06
          4.6376972023e-06 5.8148874814e-05 5.1166684898e-06 9.2217205747e-06 6.7021770519e-05 5.0614989959e-06
          1.5438539776e-05 6.7661771027e-05 5.3241988098e-06 5.6418361964e-06 7.2652583185e-05 4.8079150474e-06
          4.5181072892e-06 7.304421888e-05 5.0511130212e-06 3.154296337e-06 7.3589806561e-05 5.7358083723e-06
          1.0087025657e-05 5.4759042541e-05 5.540033726e-06 2.3304819479e-05 6.5060914494e-05 5.2465989029e-06
          3.994794497e-06 7.3169336247e-05 6.9009233812e-06 9.2684194897e-06 5.3465366364e-05 6.2466347117e-06
          5.8230607465e-06 6.2778774009e-05 6.4153186941e-06 2.4295715775e-05 6.3504143327e-05 6.4938549258e-06
          4.9201867114e-06 7.0337708166e-05 6.2204821916e-06 4.5230653996e-06 7.2285773058e-05 5.8426180658e-06
          7.4070676419e-06 6.2146864366e-05 6.6488387347e-06 9.2600976132e-06 6.7012842919e-05 6.7695050348e-06
          9.7569818536e-06 6.8717548857e-05 5.7841943999e-06 4.3713948799e-06 7.397418085e-05 6.5596755121e-06
          2.9247870771e-05 7.3227012763e-05 6.6016436904e-06 2.2955320674e-05 6.4228595875e-05 7.177371117e-06
          2.8260255931e-05 7.3957373388e-05 7.1746380854e-06 2.962169674e-05 7.3459850682e-05 7.4342042353e-06
          7.3231094575e-06 6.3490610046e-05 7.9109368016e-06 5.3592498261e-06 7.067732804e-05 7.851731425e-06
          3.7329395127e-05 7.0447247708e-05 1.8569448912e-06 4.8940960369e-06 7.311529771e-05 6.2831450123e-06
          3.4719028918e-05 7.2211201768e-05 2.5263807402e-06 2.9874390748e-05 7.3894865636e-05 6.3348466028e-06
          9.9504259197e-06 6.880654837e-05 7.3756650636e-06 4.9265827329e-06 7.3684721428e-05 5.5258096836e-06
          3.2865750654e-06 7.3448369221e-05 4.8362931011e-06 3.5056415072e-05 6.9453162723e-05 1.6402919982e-06
          3.6199824535e-05 6.8998684583e-05 1.5610550008e-06 3.6124463804e-05 6.9644171163e-05 2.5163496957e-06
          3.9312076296e-06 7.2273593105e-05 3.8238194975e-06 4.2169640437e-06 5.7465389546e-05 3.6804331103e-06
          3.6777506466e-05 7.0249370765e-05 2.5593253667e-06 3.7202905787e-06 7.2780028859e-05 5.2267118917e-06
          2.8404072509e-05 7.3398390668e-05 6.508709248e-06 2.2929494662e-05 6.5972715674e-05 6.4628302425e-06
          5.4715119404e-06 7.3165560025e-05 5.4422621361e-06 4.9494661653e-05 8.3785518655e-05 4.8001516006e-07
          4.859087494e-05 8.4191182395e-05 8.900691455e-07 4.9421156291e-05 8.4530576714e-05 8.5980661879e-07
          3.8560683606e-05 8.4129191237e-05 7.8148048033e-07 4.9969796237e-05 8.5110019427e-05 1.2536298755e-06
          8.7879498096e-06 8.3163431555e-05 1.5838336367e-06 4.9157843023e-05 8.4570478066e-05 1.5253915535e-06
          5.2132290875e-06 7.782830653e-05 2.148606427e-06 4.9699727242e-05 8.5546227638e-05 2.0445907012e-06
          4.9318710808e-05 8.405335393e-05 3.1380825476e-06 3.9487265894e-05 8.4576560766e-05 2.8174665658e-06
          6.713197763e-06 8.5887855676e-05 1.9769290702e-06 7.6809737948e-06 8.6704341811e-05 2.5152203307e-06
          5.068653536e-06 7.9024561273e-05 3.3320807233e-06 6.8477716013e-06 8.637389692e-05 3.6573310354e-06
          4.3922689656e-05 7.6309232099e-05 3.5512700833e-06 6.4924438448e-06 8.0371471995e-05 4.1355860958e-06
          8.5807032519e-06 8.4172810602e-05 3.5911093619e-06 6.7890691753e-06 8.7876695034e-05 3.6815374642e-06
          4.0069680836e-05 9.1258254542e-05 3.8932616917e-06 3.8367466914e-05 9.1927147878e-05 3.6324302073e-06
          4.2614246922e-05 7.7130345744e-05 4.115946922e-06 3.9115566324e-05 8.4645253082e-05 4.489091225e-06
          8.2141095845e-06 8.6071086116e-05 4.418669505e-06 7.7790282376e-06 8.7398919277e-05 4.5921333367e-06
          2.4961625968e-05 8.9264620328e-05 4.1805456021e-06 6.873577604e-06 8.7510663434e-05 4.8920278459e-06
          4.5579032303e-05 7.7919161413e-05 5.3089916037e-06 8.6715890575e-06 8.6738378741e-05 4.875194918e-06
          2.900976142e-05 7.4772942753e-05 5.1868232731e-06 3.0433975553e-05 7.4593313911e-05 5.6540702644e-06
          4.772711327e-05 7.7317461546e-05 5.9021804191e-06 4.6207132982e-05 7.9642872151e-05 5.5066548157e-06
          9.1603606052e-06 8.6261905381e-05 4.1844832595e-06 2.877593397e-05 7.496978651e-05 6.687061159e-06
          2.5004825147e-05 8.9662702521e-05 5.7986412685e-06 1.1915254618e-05 7.608839951e-05 6.9341126618e-06
          4.6927398216e-05 7.6053649536e-05 6.5924728005e-06 4.7654171794e-05 9.5654133474e-05 6.5006665864e-06
          1.2406642782e-05 7.4429342931e-05 7.0467640398e-06 2.9462809835e-05 7.5344847573e-05 7.9694609667e-06
          4.8044068535e-05 7.767626812e-05 7.6174947026e-06 4.8354755563e-05 9.4609313237e-05 7.8073517216e-06
          4.7075907787e-05 9.4532711955e-05 8.8273627625e-06 4.8325000535e-05 8.403974789e-05 1.7911937675e-06
          6.4003820626e-06 8.6705971626e-05 4.5631104513e-06 7.3851701927e-06 8.6502448539e-05 4.6313148232e-06
          5.0654225561e-06 7.4469840911e-05 6.0115894485e-06 2.8976110116e-05 7.4232790212e-05 6.1584487412e-06
          1.2595537555e-05 7.4516254244e-05 8.6008058133e-06 4.8679037718e-05 8.3362137957e-05 5.2435876796e-07
          4.7713660024e-05 8.4374580183e-05 8.6043701231e-07 6.7531932473e-06 8.6363819719e-05 2.7164085168e-06
          7.3206829256e-06 8.7186832388e-05 3.8321500142e-06 8.4038292698e-06 8.7212618382e-05 5.542429335e-06
          2.6010386136e-05 8.9802189905e-05 6.9831839937e-06 4.9173220759e-05 8.499892283e-05 2.4609209959e-06
          4.9340425903e-05 8.3999068011e-05 2.2880938104e-06 7.7675122157e-06 8.6225285486e-05 3.2003354136e-06
          2.8468009987e-05 7.5039708463e-05 5.8017658375e-06 2.986727668e-05 7.4973082519e-05 6.1525402089e-06
          2.9690259908e-05 7.457400352e-05 7.6289124991e-06 2.9105367503e-05 7.4109288107e-05 7.213378467e-06
          2.8401955205e-05 7.428220124e-05 7.9608462329e-06 3.8185015001e-05 8.5041821876e-05 1.9876890747e-06
          9.5124887594e-06 8.4490617155e-05 1.9843880636e-06 5.5550349316e-06 8.0838224676e-05 2.969737352e-06
          4.9164031225e-05 8.5000196123e-05 4.3188356358e-07 5.6807803048e-05 2.3444465114e-05 1.9079950562e-06
          5.0349899539e-05 1.3542361557e-05 2.3394943582e-06 6.3422150561e-05 1.4969311451e-05 2.2844239993e-06
          5.6007662351e-05 2.2179972802e-05 2.5986566925e-06 5.0368031225e-05 1.2828942999e-05 3.0476253414e-06
          6.399214908e-05 1.3391111679e-05 3.1369550015e-06 5.1334853197e-05 1.359862199e-05 3.5575808397e-06
          5.8781890402e-05 5.3755866247e-06 4.3106178964e-06 5.1500283007e-05 1.2918460015e-05 4.680182883e-06
          5.0194299547e-05 1.275618888e-05 3.9916062633e-06 5.1028477174e-05 1.3980178664e-05 4.5377792048e-06
          8.0309160694e-05 1.8429949705e-05 3.6206167806e-06 9.349926404e-05 8.0368217823e-06 3.9932160689e-06
          9.2971968115e-05 1.6022435375e-05 4.6924733397e-06 8.7190186605e-05 3.3877079204e-06 5.8804821492e-06
          5.5016760598e-05 1.7052228941e-05 4.9623349696e-06 8.0401550804e-05 1.8087755961e-05 5.9266931203e-06
          5.8226352849e-05 5.7193142311e-06 6.0830880102e-06 9.3552269391e-05 6.4921437115e-06 6.0352422224e-06
          7.1713744546e-05 1.2380232874e-05 6.2646904553e-06 7.0123373007e-05 1.3005183064e-05 6.0209963522e-06
          9.3010443379e-05 1.6013902496e-05 6.3988782131e-06 9.3161615951e-05 1.7671125534e-05 5.5616733334e-06
          8.0989651906e-05 1.9701697966e-05 6.1117693804e-06 5.5144300859e-05 1.7976588424e-05 6.8779359026e-06
          8.7629246991e-05 3.7273266571e-06 7.5117313827e-06 9.3631490017e-05 7.7691311162e-06 7.1449944699e-06
          9.3723327154e-05 2.3508830054e-05 7.1609947554e-06 5.3839874454e-05 1.6896130546e-05 6.0479624153e-06
          5.131846774e-05 1.3367483007e-05 2.4134203613e-06 5.0171725889e-05 1.3603515981e-05 3.5886610021e-06
          9.3753529654e-05 8.2434098658e-06 5.5555196923e-06 9.4049923064e-05 1.7851651137e-05 6.8371432462e-06
          5.0082639063e-05 1.3263762412e-05 4.7451549108e-06 5.1090824854e-05 1.2667208466e-05 3.9562382881e-06
          7.9933495726e-05 1.9342582164e-05 4.8379542932e-06 5.1837254432e-05 1.3754465726e-05 4.5648616833e-06
          5.2687024436e-05 4.8584603064e-05 8.5221574864e-07 5.3728534112e-05 4.8612993851e-05 1.2023019735e-06
          5.242365296e-05 4.816440196e-05 2.1939290491e-06 5.7141536672e-05 3.8431651774e-05 2.2883702968e-06
          5.352221342e-05 4.8971949582e-05 2.0903844415e-06 5.2408337069e-05 4.9016460252e-05 2.5753649879e-06
          5.2605802921e-05 4.7920206271e-05 3.0744149626e-06 5.3893003496e-05 4.8226356739e-05 3.5432667573e-06
          5.3395637224e-05 4.93173211e-05 3.4205456814e-06 5.7903293055e-05 3.8989001041e-05 3.7100321606e-06
          7.2474707849e-05 4.9249720178e-05 4.8078327382e-06 8.7412154244e-05 4.9580328778e-05 5.6047747421e-06
          9.2413538368e-05 2.4330789529e-05 7.7262511695e-06 8.8324857643e-05 2.511650564e-05 7.7695694927e-06
          8.8857261289e-05 2.6632584195e-05 8.3896102296e-06 5.2479608712e-05 4.8633006372e-05 3.7637623791e-06
          5.7790130086e-05 3.8050802686e-05 5.0101648412e-06 5.3521431255e-05 4.795123823e-05 2.7332932859e-06
          5.4317501053e-05 4.9106816732e-05 3.5433856738e-06 5.3871135606e-05 4.8819016229e-05 2.8809929518e-06
          5.2817045798e-05 4.7885943786e-05 1.469203994e-06 5.2738017985e-05 4.9074453273e-05 1.5313934227e-06
          7.4017669249e-05 7.3073832027e-05 5.1782683386e-07 7.4901778135e-05 7.3376533692e-05 8.3132988493e-07
          7.3452145443e-05 7.369065861e-05 1.0942488871e-06 5.2097999287e-05 5.3301740991e-05 2.4111011498e-06
          9.2443100584e-05 5.3505977121e-05 1.9583603716e-06 7.4154551839e-05 7.3301023804e-05 1.6486675349e-06
          7.394918066e-05 7.381184696e-05 2.4088126338e-06 5.3135732742e-05 5.4112042562e-05 3.496764748e-06
          9.3120492238e-05 5.4443626141e-05 3.2331236071e-06 7.9374440247e-05 7.0414367656e-05 3.0202197649e-06
          8.0006517237e-05 6.9882044045e-05 3.66887366e-06 7.4126095569e-05 7.0948328357e-05 3.6938033645e-06
          7.6572185208e-05 5.6896136812e-05 4.1068992687e-06 7.428862591e-05 5.7481775002e-05 4.3553077376e-06
          7.9575569544e-05 6.9944224379e-05 4.7133480621e-06 7.9415942309e-05 7.1275047958e-05 4.3742875278e-06
          5.2776671509e-05 5.2866726037e-05 4.6982154345e-06 7.693637599e-05 5.5681342928e-05 5.2165960369e-06
          7.4791219959e-05 5.771621727e-05 5.173844329e-06 7.6792530308e-05 5.7440473029e-05 5.2316167967e-06
          7.5645992183e-05 5.811932715e-05 4.8970682656e-06 7.908770931e-05 7.0904876338e-05 5.2369759942e-06
          8.7969943706e-05 5.1168692153e-05 6.2543763306e-06 7.4838782893e-05 5.728684846e-05 6.6394918576e-06
          7.6400261605e-05 5.787381815e-05 6.3175289142e-06 7.7268967289e-05 5.7563804148e-05 6.3964985202e-06
          8.0146048276e-05 6.664776447e-05 6.3849711296e-06 7.6219592302e-05 5.8528345107e-05 6.9683328547e-06
          7.9662175267e-05 6.6947148298e-05 7.9287965491e-06 7.8626319009e-05 6.971500261e-05 4.4596959015e-06
          5.1860108215e-05 5.3115614719e-05 8.4518387666e-07 7.9091427324e-05 7.0507594501e-05 3.9072137952e-06
          7.8665514593e-05 7.0096619311e-05 5.517504178e-06 7.5333780842e-05 5.730704288e-05 5.8380160226e-06
          7.5424832175e-05 5.8007946791e-05 6.8405506681e-06 7.6134885603e-05 5.6973221945e-05 6.1893229031e-06
          7.518001803e-05 5.7417320932e-05 4.1242919906e-06 7.4660041719e-05 7.2413626185e-05 3.8618336475e-06
          7.3910305218e-05 7.2485141573e-05 1.8344455839e-06 7.7425742347e-05 5.683571726e-05 5.951035746e-06
          7.3088900535e-05 5.0099901273e-05 5.9636763581e-06 7.9246710811e-05 6.9544759754e-05 3.7503791646e-06
          7.5985852163e-05 5.7656030549e-05 5.3226426644e-06 5.0234877563e-05 8.4370047261e-05 6.3545951434e-07
          7.4237352237e-05 8.6368134362e-05 1.3413376792e-06 7.4318137194e-05 7.418502355e-05 1.4138702227e-06
          5.0700000429e-05 7.5800002378e-05 1.5699999949e-06 7.5391733844e-05 8.5208943347e-05 1.9630786028e-06
          9.737018263e-05 8.7319291197e-05 1.9599053758e-06 9.8254749901e-05 8.7514919869e-05 1.6268980971e-06
          9.7053831269e-05 8.6928790552e-05 2.4077392027e-06 9.7789088613e-05 8.8043037977e-05 2.7338303425e-06
          9.7489864856e-05 8.8968205091e-05 2.9946199902e-06 9.7163276223e-05 8.7702705059e-05 3.3824262573e-06
          8.155604155e-05 8.9513814601e-05 4.0612749217e-06 9.7374198958e-05 8.8074732048e-05 4.1671205508e-06
          7.1059483162e-05 9.4290990091e-05 4.4265302677e-06 7.257766265e-05 9.3694412499e-05 4.6591626415e-06
          7.0544003393e-05 8.8270098786e-05 5.2795962802e-06 8.3530809206e-05 8.8869892352e-05 5.0745516091e-06
          7.1126123657e-05 8.9821813162e-05 5.0860330703e-06 8.7222171715e-05 7.9296252807e-05 5.8939140217e-06
          7.5292402471e-05 9.3951108283e-05 5.6639032664e-06 8.6376036052e-05 7.6955213444e-05 6.0496095102e-06
          8.7138439994e-05 7.7964490629e-05 6.1996211116e-06 8.5571642558e-05 7.7989032434e-05 6.3605334617e-06
          7.1560338256e-05 9.113260603e-05 6.2032213464e-06 8.5510349891e-05 7.7076467278e-05 6.5524136517e-06