<?xml version="1.0"?>
<VTKFile type="UnstructuredGrid" version="0.1" byte_order="LittleEndian" header_type="UInt32" compressor="vtkZLibDataCompressor">
  <UnstructuredGrid>
    <Piece NumberOfPoints="1223" NumberOfCells="1223">
      <PointData>
        <DataArray type="Int32" Name="id" format="ascii" RangeMin="1" RangeMax="1223">
          668 298 477 529 794 623
          206 624 793 888 19 59
          134 531 244 385 308 625
          626 938 669 50 666 174
          343 990 589 123 484 241
          845 318 49 457 97 495
          42 324 22 131 15 44
          118 474 3 264 196 991
          846 745 1169 766 791 792
          844 550 605 887 936 937
          989 1051 1047 1048 1050 406
          1113 1114 1166 1167 1168 133
          75 203 460 40 276 93
          430 245 386 1 593 627
          369 266 594 407 408 256
          78 671 629 150 117 461
          370 670 628 175 672 54
          362 497 475 532 674 595
          286 109 533 675 711 24
          7 257 387 215 673 124
          363 534 225 106 389 633
          119 433 434 371 388 207
          62 561 373 676 176 432
          634 677 141 597 499 246
          372 329 596 562 535 435
          20 84 267 713 501 154
          712 498 310 598 258 630
          436 309 220 500 502 208
          374 277 632 161 631 198
          344 536 61 478 504 166
          678 299 503 188 137 462
          680 679 390 311 749 750
          751 752 795 796 797 798
          799 800 801 802 803 804
          805 806 807 808 1179 1002
          842 847 848 849 850 889
          890 891 892 893 894 895
          896 897 898 899 900 901
          459 939 940 941 942 1062
          992 993 994 995 996 997
          998 999 1000 1001 592 886
          1063 1052 1053 1054 1055 1056
          1057 1058 1059 1060 1061 530
          1109 1115 1116 1117 1118 1119
          1120 1121 1122 1123 1124 1125
          1126 1170 1171 1172 1173 1174
          1175 1176 1177 1178 748 313
          121 507 636 312 209 635
          32 505 537 506 411 391
          268 682 77 51 599 479
          177 681 226 563 330 600
          601 275 148 314 410 85
          409 508 538 325 60 235
          714 463 105 690 315 186
          540 81 221 539 67 300
          437 227 151 92 167 129
          565 438 345 541 375 18
          57 542 637 458 907 192
          14 160 216 364 145 135
          464 412 715 602 543 857
          569 82 716 480 346 718
          393 26 283 683 717 269
          228 906 113 89 12 288
          348 746 753 754 755 756
          856 759 764 905 814 809
          810 811 812 813 851 852
          853 854 855 883 902 903
          904 943 944 945 946 947
          948 949 950 951 1003 1004
          1005 1006 1007 1008 547 1064
          1065 1066 1067 1068 1069 1070
          1071 1072 1073 1074 1110 1127
          1128 1129 1134 509 952 1165
          1180 1181 1182 1190 511 544
          566 316 510 37 317 719
          914 210 481 111 638 229
          247 34 270 366 641 222
          413 513 90 350 512 439
          365 567 545 546 367 640
          168 142 603 331 79 392
          187 199 101 642 349 236
          351 643 604 514 2 259
          217 649 684 332 157 568
          126 564 686 35 46 560
          69 440 394 644 278 483
          515 115 622 287 496 86
          482 720 685 289 271 182
          414 758 416 72 149 415
          441 200 721 645 333 136
          691 1017 687 517 352 39
          48 120 646 13 384 353
          516 181 647 590 23 158
          688 211 465 204 189 549
          689 96 341 30 648 548
          570 99 95 354 230 710
          347 304 242 155 762 763
          761 765 815 816 817 818
          819 820 821 822 823 824
          442 858 859 860 861 862
          863 864 865 866 301 757
          908 909 910 911 912 913
          1136 571 237 934 953 954
          955 956 957 958 959 960
          961 962 1086 1135 1009 1010
          1011 1012 1013 1014 1015 1016
          1075 1076 1077 1078 1079 1080
          1081 1082 1083 1084 1085 1111
          1112 1130 1131 1132 1133 1137
          1191 1184 1185 1186 1187 1188
          1189 58 127 279 43 692
          418 466 110 723 56 417
          572 218 355 190 73 405
          476 38 573 722 280 395
          6 223 574 33 575 377
          650 248 179 47 368 159
          243 146 305 41 87 116
          91 17 173 88 265 169
          102 306 197 747 767 789
          825 867 868 869 485 884
          915 935 963 964 965 1018
          1019 1020 1138 1139 1140 1192
          1193 518 107 238 606 607
          357 396 724 576 486 693
          966 1145 11 290 162 334
          419 420 487 191 608 249
          66 694 726 651 1144 103
          489 272 138 319 551 467
          827 45 284 130 10 152
          36 768 769 770 771 772
          826 843 870 871 872 916
          917 918 919 1021 1022 1023
          1049 1087 1088 1089 1090 1091
          1141 1142 1143 1194 1195 1196
          695 185 652 285 398 250
          397 655 25 519 577 443
          609 696 335 163 610 55
          74 444 973 80 147 291
          727 193 468 730 378 612
          260 611 5 552 422 697
          326 320 108 578 423 653
          446 183 140 654 445 424
          273 728 591 4 379 164
          613 579 261 132 490 700
          184 342 302 520 231 729
          292 447 698 9 614 336
          448 293 76 213 294 52
          731 491 492 470 195 699
          521 469 139 224 773 774
          775 776 777 778 779 780
          790 828 829 830 831 832
          833 212 873 874 920 921
          922 923 924 925 967 968
          969 970 971 972 356 988
          1024 1025 1026 1027 1028 1029
          1030 1097 1093 1094 1095 1096
          742 1146 1147 1148 1149 1150
          1151 1152 1153 725 488 1197
          1198 1199 1200 1201 1202 1203
          1204 1205 701 449 743 1108
          21 64 471 429 104 125
          450 580 639 656 65 251
          734 68 281 709 321 733
          29 667 581 527 156 122
          399 702 262 736 170 735
          451 327 553 380 657 421
          282 381 737 232 554 472
          328 658 400 452 358 522
          703 295 28 219 555 178
          8 401 523 582 337 583
          738 94 83 205 615 114
          382 338 661 53 255 705
          556 659 253 425 704 234
          63 274 454 618 453 359
          660 233 201 144 584 263
          402 617 426 165 706 404
          663 664 153 31 431 252
          383 70 585 403 455 665
          616 296 558 194 172 240
          708 741 557 27 360 619
          171 427 473 739 214 662
          71 528 586 100 740 707
          303 322 112 361 428 98
          180 254 128 16 620 744
          339 524 621 323 143 525
          526 588 587 559 493 494
          340 732 307 297 456 202
          781 782 783 784 785 786
          787 788 760 834 835 836
          837 838 839 840 841 875
          876 877 878 879 880 881
          882 885 926 927 928 929
          930 931 932 933 376 974
          987 976 977 978 979 980
          981 982 983 984 985 986
          239 1031 1032 1033 1034 1035
          1036 1037 1038 1039 1040 1041
          1042 1043 1044 1045 1046 1098
          1099 1100 1101 1102 1103 1104
          1105 1106 1107 1092 975 1154
          1155 1156 1157 1158 1159 1160
          1161 1162 1163 1164 1206 1207
          1208 1209 1210 1211 1212 1213
          1214 1215 1216 1217 1218 1219
          1220 1221 1222 1223 1183
        </DataArray>
        <DataArray type="Int32" Name="type" format="ascii" RangeMin="1" RangeMax="2">
          2 2 2 2 2 2
          2 2 2 2 1 1
          1 2 2 2 2 2
          2 2 2 1 1 2
          2 2 1 1 2 1
          2 2 1 1 1 1
          1 1 1 1 1 1
          1 1 1 1 1 2
          2 1 2 2 2 2
          2 2 2 2 2 2
          2 2 1 1 2 2
          2 2 2 2 2 2
          2 1 2 1 2 1
          1 2 2 1 2 2
          2 2 2 2 2 2
          2 2 2 1 1 2
          2 2 2 2 2 1
          1 2 1 2 2 2
          2 2 2 2 2 1
          1 2 2 1 2 2
          1 2 2 2 2 2
          1 2 2 2 2 2
          2 2 2 2 2 2
          2 2 2 2 2 2
          2 2 2 2 2 2
          1 1 2 2 2 2
          2 2 2 2 2 2
          2 2 2 2 2 2
          2 2 2 2 2 2
          2 2 2 2 2 1
          2 2 2 2 2 2
          2 2 2 2 2 2
          2 2 2 2 2 2
          2 2 2 2 2 2
          2 2 2 2 2 2
          1 2 2 2 2 2
          2 2 2 2 2 2
          2 2 2 2 2 2
          2 2 2 2 2 2
          2 2 2 2 2 2
          2 2 2 2 2 2
          2 2 2 2 2 2
          2 2 2 2 2 2
          1 2 2 2 2 2
          2 2 2 2 2 2
          2 2 2 2 2 2
          2 2 2 2 2 2
          2 2 2 2 2 2
          1 2 2 2 2 2
          2 2 2 1 2 2
          2 2 2 2 2 2
          2 1 2 2 2 1
          2 2 2 1 1 2
          2 2 2 2 2 1
          2 1 2 2 2 2
          2 2 1 1 1 1
          2 2 2 2 2 1
          1 2 2 1 2 1
          1 1 1 1 1 2
          2 2 2 2 2 2
          2 1 2 2 2 2
          2 1 1 2 2 2
          2 2 2 1 1 2
          2 1 2 2 2 2
          2 2 2 2 2 2
          2 2 2 2 2 2
          2 2 2 1 2 2
          2 2 2 2 2 2
          2 2 2 2 2 2
          2 2 2 2 2 2
          2 2 2 2 2 2
          2 2 2 2 1 2
          2 2 2 2 2 1
          2 2 2 2 2 2
          2 2 2 1 2 2
          2 2 2 2 2 2
          2 1 2 1 2 2
          2 2 1 2 2 2
          1 2 2 2 1 2
          1 2 2 2 2 2
          1 2 1 2 2 2
          2 2 2 2 1 2
          1 2 2 2 2 2
          1 2 2 1 1 1
          2 2 2 2 2 2
          2 1 1 2 1 1
          2 2 2 2 2 2
          2 2 2 2 2 2
          2 2 2 2 2 2
          2 2 2 2 2 1
          1 1 2 1 1 2
          2 2 2 1 1 2
          2 2 2 1 2 2
          2 1 1 1 2 2
          2 1 1 2 2 1
          2 1 1 2 2 2
          2 2 2 2 2 2
          2 2 2 2 2 2
          2 2 2 2 2 2
          2 2 2 2 2 2
          2 2 2 2 2 2
          2 2 2 1 2 2
          2 2 2 2 2 2
          2 2 2 2 2 2
          2 2 2 2 2 2
          2 2 2 2 2 2
          2 2 2 2 2 1
          1 2 2 2 2 2
          2 2 2 2 2 2
          2 1 2 2 1 2
          2 2 1 2 1 2
          2 1 2 2 2 1
          1 1 2 2 2 2
          1 2 2 1 2 2
          2 2 1 1 1 2
          1 1 1 1 1 1
          1 1 1 1 1 1
          1 1 1 1 2 1
          2 2 2 2 2 1
          2 1 2 2 2 2
          2 2 2 2 2 2
          2 2 2 2 2 2
          2 2 2 2 2 2
          2 2 1 2 2 2
          2 2 2 2 2 2
          2 2 2 2 2 1
          2 2 2 2 2 2
          2 1 1 1 1 1
          1 2 2 2 2 2
          2 1 2 2 2 2
          2 2 2 2 2 2
          1 2 2 2 2 2
          2 2 2 2 2 2
          2 2 2 1 2 2
          2 2 1 2 2 2
          2 2 2 2 2 1
          2 2 2 1 1 2
          2 1 2 2 2 2
          2 2 1 2 2 2
          1 2 2 2 2 2
          2 2 1 2 2 2
          2 2 1 1 2 2
          2 2 2 2 2 2
          2 1 2 2 2 2
          2 2 2 1 2 2
          2 2 2 2 2 1
          2 2 2 2 2 2
          2 2 2 1 2 2
          2 2 2 2 2 2
          1 2 2 2 2 2
          2 2 2 2 2 2
          2 2 2 2 2 2
          2 2 2 2 2 1
          2 2 2 2 2 2
          2 2 2 2 2 2
          2 2 2 2 2 2
          2 2 2 2 2 2
          2 2 2 2 2 2
          2 2 2 2 2 2
          1 2 2 2 1 2
          2 2 2 2 2 2
          2 2 2 2 2 2
          1 1 2 1 2 2
          2 2 2 2 2 2
          2 1 2 2 2 2
          2 2 2 2 2 2
          1 2 2 2 2 2
          2 2 1 1 2 2
          1 2 2 2 2 2
          2 1 1 1 2 2
          2 2 2 1 1 2
          2 2 2 2 2 2
          2 2 2 2 2 2
          2 2 2 2 2 2
          2 2 2 2 2 2
          2 2 1 1 1 2
          2 2 2 2 2 2
          2 2 2 1 2 2
          2 2 2 1 2 2
          2 2 2 2 2 2
          2 1 2 1 2 2
          2 2 2 2 2 1
          2 2 2 1 2 2
          2 2 2 2 2 2
          2 2 2 2 2 2
          2 2 1 2 2 2
          2 2 2 2 2 2
          2 2 2 2 2 2
          2 2 2 2 2 2
          2 2 2 2 2 2
          2 1 2 2 2 2
          2 2 2 2 2 2
          2 2 2 2 2 2
          2 2 2 2 2 2
          2 2 2 2 2 2
          2 2 2 2 2 2
          2 2 2 2 2 2
          2 2 2 2 2 2
          2 2 2 2 2 2
          2 2 2 2 2 2
          2 2 2 2 2 2
          2 2 2 2 2 2
          2 2 2 2 2 2
          2 2 2 2 2
        </DataArray>
        <DataArray type="Float64" Name="diameter" format="ascii" RangeMin="7.9006058481e-07" RangeMax="1.9650849899e-06">
          8.9148315394e-07 8.576688625e-07 9.6725833873e-07 1.0305649187e-06 1.0335708943e-06 1.035832743e-06
          1.0150577939e-06 8.0251771249e-07 1.0005769349e-06 9.0158850423e-07 1.5666701481e-06 1.6669626056e-06
          1.9340364647e-06 8.9192673395e-07 9.707814312e-07 9.1330337619e-07 9.7013791861e-07 8.914483182e-07
          8.7019880373e-07 9.3289474863e-07 8.6563132394e-07 1.5954780835e-06 1.6151774111e-06 8.8201378e-07
          9.2587356121e-07 8.7695889799e-07 1.5736773319e-06 1.7416438603e-06 9.3679685083e-07 1.7165114834e-06
          1.0033383068e-06 1.008084749e-06 1.7160093316e-06 1.6674365118e-06 1.8926389362e-06 1.6476834557e-06
          1.7965751772e-06 1.7064745595e-06 1.6444235064e-06 1.8826921936e-06 1.5829748765e-06 1.8824961811e-06
          1.7327962018e-06 1.736710967e-06 1.83441921e-06 1.7415655497e-06 1.816432534e-06 8.9033005038e-07
          9.0642027312e-07 1.6644541251e-06 8.8711636595e-07 1.0388465721e-06 1.0356783128e-06 9.4904559866e-07
          9.9139137038e-07 1.0219269143e-06 9.3585076404e-07 9.9685011669e-07 9.7594967217e-07 8.7808211339e-07
          9.2399142088e-07 8.2671890456e-07 1.5971219568e-06 1.5756500089e-06 8.6108421276e-07 9.8396246722e-07
          8.529468839e-07 8.5865766446e-07 8.025378831e-07 8.8584108634e-07 7.9999924831e-07 8.7412391242e-07
          9.4304019694e-07 1.7468236819e-06 9.1231240686e-07 1.6614884093e-06 8.2705364827e-07 1.9260613442e-06
          1.7547335878e-06 8.7275501944e-07 9.3393866891e-07 1.6875563114e-06 9.3480170731e-07 9.2183497509e-07
          1.0427161635e-06 9.3103468307e-07 8.5349167874e-07 8.4057113273e-07 9.5724012608e-07 9.9538209281e-07
          9.8717160291e-07 1.0084754924e-06 8.8540992994e-07 1.8632790972e-06 1.7252306867e-06 9.3092226558e-07
          9.2360624231e-07 8.2955678073e-07 1.0383442853e-06 8.7130218851e-07 1.0060597784e-06 1.7769386753e-06
          1.6878228547e-06 9.1074067561e-07 1.6565376508e-06 9.6097235757e-07 8.4396099594e-07 8.1903234098e-07
          8.0688479936e-07 9.9691757072e-07 9.3798513486e-07 8.5187361714e-07 1.0076482488e-06 1.5954264837e-06
          1.8843353019e-06 9.1596357708e-07 1.058345317e-06 1.7889549995e-06 8.8780890872e-07 8.9579446685e-07
          1.6992381476e-06 9.6836686224e-07 8.1859955157e-07 8.7970074822e-07 1.008832124e-06 8.161728532e-07
          1.9397434372e-06 1.0244325396e-06 1.0218739769e-06 1.034170325e-06 1.0358297627e-06 9.2705031382e-07
          8.0427913464e-07 9.5070563563e-07 8.1967688688e-07 8.1740790651e-07 1.027893077e-06 8.3954002743e-07
          9.4843069658e-07 8.8971644498e-07 9.0221023893e-07 9.6375381977e-07 8.6093461042e-07 9.6600723449e-07
          9.9419536224e-07 9.0049592448e-07 9.62180447e-07 9.2752727871e-07 8.7005775598e-07 9.3262908604e-07
          1.7658443806e-06 1.9434081868e-06 1.0044552995e-06 1.0256413332e-06 9.5796331606e-07 9.2079394977e-07
          1.0434976486e-06 1.0465749023e-06 1.0209776414e-06 9.1587405088e-07 1.0181420642e-06 9.5323668751e-07
          8.9208182256e-07 9.3710132674e-07 9.8889426989e-07 8.8471718596e-07 9.8437201065e-07 9.6558240203e-07
          9.3164795846e-07 8.1723191151e-07 9.0439764693e-07 8.3223444177e-07 8.8317673597e-07 9.0648621523e-07
          1.0489423088e-06 8.4850994234e-07 9.8523608915e-07 9.9006284962e-07 9.8574417107e-07 1.8752069323e-06
          8.8072413347e-07 9.6609133575e-07 9.409341685e-07 8.722936768e-07 9.9993632416e-07 8.9197498811e-07
          8.6748962909e-07 1.0548594946e-06 1.0529592335e-06 9.9016538106e-07 1.0304799434e-06 1.0303435917e-06
          9.5873959423e-07 1.0505265743e-06 1.0175603009e-06 1.0294004963e-06 9.8328715352e-07 1.0451729566e-06
          9.3796220232e-07 1.0371182267e-06 1.0304984652e-06 9.1457530922e-07 9.6342793566e-07 1.0560360417e-06
          1.0138461978e-06 1.00525979e-06 9.7726701024e-07 1.0121304169e-06 8.4176480742e-07 9.2986709084e-07
          1.5248060508e-06 1.0296129664e-06 9.6280853144e-07 1.0117244257e-06 9.5453856953e-07 9.4633183678e-07
          9.9917959345e-07 9.1424135786e-07 9.7909137257e-07 9.3993321452e-07 9.1771779751e-07 9.5522092511e-07
          9.861023426e-07 9.144167025e-07 9.6649331483e-07 8.9113807524e-07 1.0070293756e-06 9.1247230317e-07
          9.5871632953e-07 8.975136644e-07 8.6124962668e-07 9.4139981476e-07 9.0511340614e-07 9.4296671551e-07
          8.870113015e-07 8.6813638783e-07 8.7278876273e-07 9.0966546552e-07 8.4428689037e-07 8.6072944375e-07
          8.4353217432e-07 9.5248695145e-07 8.8376937355e-07 8.6749869007e-07 9.2870968005e-07 9.2452368763e-07
          8.8385925287e-07 9.3144096804e-07 9.0479407408e-07 8.8059760508e-07 9.4715407067e-07 8.9685347049e-07
          9.2681580042e-07 9.0631000177e-07 9.3234681913e-07 8.4619627721e-07 8.1393184332e-07 8.8267026769e-07
          1.5458636095e-06 8.9784520271e-07 8.2838941163e-07 8.9492578899e-07 8.6354421021e-07 9.190986477e-07
          9.2334269196e-07 8.5196659506e-07 8.7549422749e-07 9.1523140694e-07 8.2339786171e-07 8.8378005451e-07
          8.653606863e-07 8.4587992012e-07 8.383304715e-07 8.9957560777e-07 8.8062153502e-07 8.5197487631e-07
          8.0758049062e-07 8.1641990561e-07 8.0877607442e-07 8.3266455576e-07 8.307182722e-07 8.9436732209e-07
          9.6758929178e-07 9.3069796407e-07 1.028789734e-06 9.2784299131e-07 8.7771895728e-07 1.0205871396e-06
          1.8074295175e-06 8.824394371e-07 9.4027949679e-07 8.9500081203e-07 8.963417484e-07 1.0238414205e-06
          1.059691727e-06 8.6978567053e-07 8.6778712746e-07 1.7345024148e-06 9.0461622007e-07 9.2689976071e-07
          1.0251581297e-06 8.2477953309e-07 8.4549878084e-07 9.7238757934e-07 9.0199647542e-07 8.8010195568e-07
          8.7917076986e-07 1.7512806461e-06 8.3634172764e-07 1.0512497862e-06 9.9550758594e-07 1.817258294e-06
          8.9962239945e-07 8.6565904011e-07 8.653451538e-07 1.7682164216e-06 1.7074223776e-06 9.4555299978e-07
          1.0294934445e-06 9.2138040395e-07 9.6331698153e-07 1.0575177392e-06 1.0594782021e-06 1.9192454996e-06
          8.9352083671e-07 1.637053896e-06 9.7564786617e-07 9.4644434723e-07 8.476740129e-07 9.3225952599e-07
          1.0329616747e-06 1.0322797519e-06 1.8787436934e-06 1.7356127888e-06 1.8734139273e-06 1.6621625785e-06
          9.0296319322e-07 1.0099767315e-06 9.4901753531e-07 9.6537986138e-07 1.0027146362e-06 1.8992690647e-06
          1.7360922522e-06 9.0644217251e-07 1.059374081e-06 1.7151366875e-06 9.825020321e-07 1.8236464042e-06
          1.9650849899e-06 1.8665334453e-06 1.7418484062e-06 1.7275816157e-06 1.8364499278e-06 8.7755725302e-07
          9.9583926695e-07 8.3985183303e-07 9.1842782381e-07 8.1162203749e-07 9.2692189366e-07 9.3390473108e-07
          9.2195761494e-07 1.9468474645e-06 1.055547545e-06 9.26198415e-07 9.5779501833e-07 1.0268422172e-06
          1.0524981968e-06 1.9277646499e-06 1.8111473601e-06 1.0474037941e-06 1.0541164844e-06 1.0288874069e-06
          9.5091192686e-07 8.9124128547e-07 8.5996344605e-07 1.6898538412e-06 1.5318039173e-06 1.0274420863e-06
          1.0109273944e-06 1.5483347362e-06 1.0487535324e-06 9.6418007988e-07 1.0272229189e-06 8.9451736847e-07
          9.9349742379e-07 1.0515746356e-06 1.0366410256e-06 9.4999770002e-07 9.9719657959e-07 1.0404621004e-06
          1.0552209358e-06 9.4336544143e-07 9.4945389074e-07 1.0144200886e-06 9.9293578951e-07 1.007028657e-06
          1.0045467174e-06 9.8796627522e-07 9.6563995607e-07 1.6760277861e-06 9.2332158234e-07 9.1588893831e-07
          9.5673483101e-07 9.507274594e-07 9.7058690313e-07 9.2710003113e-07 9.8946457683e-07 8.9045876453e-07
          9.6268816347e-07 9.6119238795e-07 8.5131523105e-07 8.9687319921e-07 9.1718324339e-07 9.3323068426e-07
          8.9680202971e-07 9.2092051369e-07 9.5754798224e-07 8.9754891049e-07 9.5526396566e-07 9.2530539808e-07
          8.7389674431e-07 9.0179702237e-07 9.1755601764e-07 8.5587858334e-07 9.0265291742e-07 8.7942865475e-07
          8.6441214138e-07 9.0307865881e-07 9.3610587098e-07 8.5643725124e-07 1.4757907504e-06 9.0143700885e-07
          8.1849812171e-07 9.1631139371e-07 9.2171737249e-07 9.229533641e-07 9.6857718616e-07 1.4981277599e-06
          8.1319904834e-07 8.3849084587e-07 7.9555866614e-07 8.7354657848e-07 9.2577954472e-07 9.7149056074e-07
          8.9204141675e-07 9.5579506541e-07 9.9326767918e-07 1.7371909721e-06 9.9572459925e-07 9.9513547817e-07
          9.7382087676e-07 9.6123586478e-07 9.1546249368e-07 9.2546341401e-07 8.4316004289e-07 8.2836772246e-07
          7.9184715997e-07 1.7171139213e-06 9.7179243245e-07 1.7428045669e-06 8.6289150973e-07 8.9706976414e-07
          8.9287683829e-07 9.6341128758e-07 1.8184013089e-06 9.7998774083e-07 9.9675630303e-07 9.2652370465e-07
          1.7291524895e-06 8.9716666582e-07 8.7255211975e-07 8.9842108035e-07 1.6484382024e-06 1.0464671999e-06
          1.8725119704e-06 8.3420395674e-07 9.5116585535e-07 9.6472431662e-07 1.0572873509e-06 9.4692089562e-07
          1.9204526388e-06 1.0303151826e-06 1.7399028306e-06 9.7404694352e-07 8.2410384351e-07 1.0317017088e-06
          8.6632490125e-07 1.0522616198e-06 9.5110810983e-07 9.2286201858e-07 1.612358701e-06 8.5376939958e-07
          1.7403129504e-06 1.0351445362e-06 8.1721280012e-07 9.3939292838e-07 8.6412708765e-07 8.5860729107e-07
          1.5570723959e-06 8.2751813999e-07 9.1840781335e-07 1.926065342e-06 1.8178112386e-06 1.5922485771e-06
          9.6089910077e-07 9.248543586e-07 8.4974199292e-07 8.5920221894e-07 9.0214005056e-07 9.3678305168e-07
          1.052186006e-06 1.5387679114e-06 1.6930664384e-06 9.8207642292e-07 1.5782332225e-06 1.9459101876e-06
          9.5773065351e-07 1.0369940055e-06 1.055486779e-06 8.2077458009e-07 1.0461711008e-06 9.5579916439e-07
          9.8153485865e-07 1.024454097e-06 1.0156039365e-06 1.0393104402e-06 1.0154642762e-06 1.0523836408e-06
          9.2356771341e-07 1.053486498e-06 9.9947872211e-07 9.3393645367e-07 1.0273687812e-06 7.9824602105e-07
          8.7535758799e-07 8.3768315396e-07 8.2287193255e-07 9.8166458456e-07 9.3481325477e-07 1.8824101129e-06
          1.7775421079e-06 1.6865725135e-06 8.8696325247e-07 1.7216605853e-06 1.7971503324e-06 1.0260346605e-06
          9.1339101363e-07 1.0407040598e-06 9.6052859658e-07 1.749358068e-06 1.7219489246e-06 8.0643827205e-07
          8.7515566774e-07 1.04232758e-06 9.987200631e-07 1.8074587321e-06 9.7301067022e-07 8.1212281774e-07
          8.9531080073e-07 1.6304260006e-06 1.7551250297e-06 1.6425037395e-06 8.1303475596e-07 8.681543224e-07
          9.5590024875e-07 1.5523851267e-06 1.8383940351e-06 9.7911212798e-07 9.5223631422e-07 1.6478710346e-06
          9.6334081091e-07 1.7963926e-06 1.7812832599e-06 9.6087905986e-07 9.3944610367e-07 1.041182066e-06
          1.0213104059e-06 8.3726303616e-07 9.8239059065e-07 1.0560252609e-06 9.4458305502e-07 1.0449939429e-06
          1.0336700431e-06 9.2121304001e-07 9.5782998676e-07 1.0527590342e-06 1.0035327134e-06 1.0029260881e-06
          1.0530635173e-06 9.631359775e-07 1.0014992856e-06 1.0333563586e-06 9.489339517e-07 1.0062643008e-06
          9.5155404174e-07 9.8133931641e-07 1.0135959413e-06 9.5015343512e-07 9.8379329842e-07 9.8083914745e-07
          9.6569282587e-07 9.3824730563e-07 9.1666515245e-07 9.5298446402e-07 1.000643973e-06 9.1190168215e-07
          8.5740657424e-07 1.0034694452e-06 9.2607155498e-07 1.4996072954e-06 8.6604899472e-07 9.8515278922e-07
          8.8902746545e-07 9.1326794288e-07 8.6628200542e-07 9.3686695146e-07 9.0112031968e-07 9.0777337848e-07
          8.9228415048e-07 9.0157259919e-07 8.7827096504e-07 9.1703119369e-07 9.0574026073e-07 8.5538212254e-07
          8.6321168278e-07 8.3273881775e-07 9.4991214346e-07 8.9250992438e-07 8.6949929552e-07 9.345276105e-07
          9.3292089928e-07 8.9456389296e-07 8.9219406647e-07 9.408988833e-07 8.9122531765e-07 9.2475570125e-07
          9.1960970977e-07 9.4548411129e-07 8.4400070856e-07 8.162321258e-07 9.3235359418e-07 1.5842174224e-06
          1.6130148998e-06 9.0061045706e-07 8.4141367703e-07 8.973482981e-07 8.5927721112e-07 8.7368424939e-07
          8.4969029702e-07 8.1303802978e-07 8.6887941032e-07 8.5183464566e-07 8.4216443506e-07 8.534698916e-07
          8.899444507e-07 1.6750849354e-06 8.7984623874e-07 1.0407136329e-06 1.8744420126e-06 9.1001307532e-07
          1.0355338943e-06 8.9094035464e-07 1.7094510481e-06 1.0538875488e-06 1.7073180012e-06 9.9940166329e-07
          8.877351183e-07 1.7998078821e-06 1.0102581891e-06 8.0656881955e-07 1.0059276897e-06 1.7328620835e-06
          1.6042986728e-06 1.7229333704e-06 9.389759667e-07 1.0050634377e-06 8.697780457e-07 1.0225997225e-06
          1.7371910274e-06 9.5746605704e-07 9.306118908e-07 1.7691364651e-06 8.6622893793e-07 1.0541150696e-06
          9.6532636967e-07 9.3005045594e-07 1.8537970524e-06 1.8225724379e-06 1.7291525649e-06 9.1098749161e-07
          1.7172625509e-06 1.836450008e-06 1.797419577e-06 1.7387720881e-06 1.9581895904e-06 1.5549167545e-06
          1.7980280592e-06 1.9462897294e-06 1.8486807299e-06 1.9264616469e-06 1.7659531541e-06 1.8590710228e-06
          1.4935281893e-06 1.7725691354e-06 1.8989360326e-06 1.7013167703e-06 1.044955225e-06 1.5177769502e-06
          1.0253017994e-06 9.2315943063e-07 9.6977369208e-07 1.0181608767e-06 9.9420744756e-07 1.5329313576e-06
          9.0353233743e-07 1.6830331267e-06 9.8577914025e-07 8.7310072097e-07 9.5000107186e-07 9.2164608762e-07
          8.8625938982e-07 8.8518342207e-07 8.4628868984e-07 8.7013553642e-07 8.6276971758e-07 8.0204924011e-07
          8.9031280955e-07 9.7628163716e-07 9.0414753016e-07 8.6933291998e-07 8.7965892874e-07 8.9903189901e-07
          9.8341055869e-07 9.1164408706e-07 1.0230504776e-06 9.0316120052e-07 9.4392890628e-07 8.7265442687e-07
          9.1508496787e-07 8.7523978179e-07 1.6422697576e-06 9.4580115692e-07 8.6091495949e-07 8.5841111503e-07
          9.0267137183e-07 9.4394674851e-07 9.6835189023e-07 9.159596657e-07 8.6403029205e-07 8.5294428558e-07
          9.8424118863e-07 1.0022824112e-06 9.8680299202e-07 9.0666040194e-07 8.6125838446e-07 1.7337106384e-06
          1.0102812325e-06 1.0019088276e-06 1.0345860654e-06 8.5922799451e-07 1.0244825536e-06 9.9919926717e-07
          9.624245505e-07 1.8372186366e-06 1.8212289391e-06 1.7093450473e-06 1.9005546595e-06 1.6539006407e-06
          1.8493619469e-06 9.060212966e-07 9.7285370455e-07 1.0229240265e-06 1.0467306489e-06 9.8875153832e-07
          9.6114730807e-07 1.5846365108e-06 9.5632097974e-07 9.6055069802e-07 9.2226540863e-07 9.9802286961e-07
          8.8260079613e-07 9.6373032151e-07 9.0810713968e-07 8.8532574611e-07 8.4442192559e-07 9.303924209e-07
          1.4999900123e-06 8.6890078417e-07 8.9589557289e-07 8.3238267624e-07 8.4876381788e-07 9.1249356136e-07
          8.4143123461e-07 8.5105212286e-07 8.8693408057e-07 8.1525605328e-07 7.9911561696e-07 7.9328440622e-07
          1.0024014339e-06 9.1849780739e-07 8.6783345272e-07 1.6882043864e-06 8.6380546627e-07 8.3459460125e-07
          8.4196328824e-07 1.0417726204e-06 1.6619602998e-06 9.2758800431e-07 7.9938034294e-07 8.85492816e-07
          9.4346474509e-07 9.9161664459e-07 9.1568998504e-07 9.5592248778e-07 1.0551716777e-06 1.8614272556e-06
          8.4813238439e-07 9.1972338142e-07 9.1993363714e-07 1.9110219125e-06 1.8142306262e-06 9.3034090176e-07
          1.0274954504e-06 1.8043145817e-06 9.4039384958e-07 1.0584512242e-06 8.1132013705e-07 8.7021167321e-07
          9.6196764293e-07 8.7763128649e-07 1.7969820653e-06 9.7164083712e-07 9.8233558532e-07 1.0385646332e-06
          1.7060233625e-06 1.0582392243e-06 8.5986205776e-07 9.8401394692e-07 9.3202980407e-07 8.7992894916e-07
          8.5126751066e-07 8.2977256629e-07 1.6233745079e-06 8.2735887266e-07 1.0311530016e-06 1.0292723801e-06
          8.2383649304e-07 9.0027363895e-07 1.6090820622e-06 1.9167426243e-06 8.9406290818e-07 8.8215370425e-07
          8.4884226448e-07 9.0558106368e-07 9.7974589119e-07 1.0537565657e-06 8.8888066748e-07 1.0133976315e-06
          1.0073351127e-06 1.6316665787e-06 9.5902261369e-07 8.7621117487e-07 1.0495364376e-06 1.0444544642e-06
          1.0040359062e-06 9.642093747e-07 8.7539576438e-07 1.9430004528e-06 8.9070055482e-07 8.5712079138e-07
          9.4609417652e-07 1.0439025051e-06 1.0195214744e-06 9.8376716138e-07 1.0139715365e-06 1.8577264965e-06
          1.0306798831e-06 1.0564317481e-06 9.3395130909e-07 9.8769648848e-07 1.0547921891e-06 7.9557933969e-07
          9.7878032715e-07 9.5754599358e-07 9.5590612356e-07 1.7925320904e-06 8.7581379832e-07 9.4956050137e-07
          1.0360083112e-06 8.6367003284e-07 9.9300820506e-07 1.0070924759e-06 1.0256515242e-06 8.9446910199e-07
          1.5786107966e-06 1.0569212151e-06 9.4713930887e-07 9.4693045911e-07 1.0153485259e-06 9.8381166434e-07
          1.0232963186e-06 1.0482118077e-06 1.0052148136e-06 9.9812477871e-07 9.7338223131e-07 9.3832764508e-07
          9.6510344953e-07 9.0904498984e-07 9.3240750918e-07 9.2898628036e-07 9.4705965073e-07 9.3317041521e-07
          8.6334885428e-07 9.485881209e-07 9.4486897891e-07 9.6890175651e-07 1.040935112e-06 1.5621421214e-06
          9.5161883163e-07 8.6382874018e-07 9.4309079376e-07 9.358925686e-07 8.4063916737e-07 8.7847729601e-07
          9.6534959344e-07 8.7688506859e-07 8.9930067052e-07 8.7787779251e-07 9.0083878285e-07 9.3374381644e-07
          8.2241933721e-07 9.1020554253e-07 8.52580283e-07 8.7225071767e-07 9.1025872485e-07 8.393138844e-07
          8.8509946779e-07 8.5176683207e-07 8.489611993e-07 8.9436383987e-07 1.0006938258e-06 8.6725111219e-07
          8.9099640128e-07 8.1526196232e-07 8.7834154336e-07 8.0231920615e-07 8.9819981094e-07 8.0709328863e-07
          8.3257254462e-07 7.9551667858e-07 8.2842391402e-07 9.7792063372e-07 9.9129486056e-07 8.9962521444e-07
          1.6433795544e-06 8.8492084307e-07 8.94406074e-07 9.026911932e-07 1.6511774556e-06 1.0412360557e-06