<?xml version="1.0"?>
<VTKFile type="UnstructuredGrid" version="0.1" byte_order="LittleEndian" header_type="UInt32" compressor="vtkZLibDataCompressor">
  <UnstructuredGrid>
    <Piece NumberOfPoints="404" NumberOfCells="404">
      <PointData>
        <DataArray type="Int32" Name="id" format="ascii" RangeMin="1" RangeMax="404">
          133 206 75 19 134 174
          244 59 50 123 241 97
          49 42 118 131 15 44
          22 3 196 264 276 298
          308 324 343 385 203 93
          40 1 245 78 150 256
          175 54 117 176 124 24
          7 257 215 109 119 20
          207 62 154 246 106 225
          84 141 220 258 198 208
          161 137 166 188 61 266
          267 277 286 299 309 310
          311 329 344 362 363 369
          370 371 372 373 374 386
          387 388 389 390 209 121
          77 32 177 148 226 235
          51 85 60 105 186 227
          81 259 151 167 129 67
          221 155 18 92 288 192
          160 216 145 135 14 82
          57 189 228 26 158 348
          89 12 268 269 275 393
          283 287 300 312 313 314
          315 325 330 345 346 364
          375 391 392 210 111 222
          37 394 34 142 90 156
          199 168 229 79 187 236
          217 46 101 157 2 126
          35 86 69 182 115 136
          48 200 72 149 39 120
          278 211 13 99 204 30
          23 230 96 95 242 270
          271 289 181 301 304 316
          317 331 332 333 341 349
          350 351 352 353 354 113
          347 365 366 367 376 384
          237 43 127 110 218 190
          56 73 33 159 223 248
          6 38 179 146 47 87
          116 91 17 173 88 41
          169 102 58 197 243 265
          279 280 305 306 318 355
          368 377 395 107 238 162
          11 66 249 191 138 212
          103 45 130 10 152 36
          272 284 290 319 334 357
          356 396 250 185 398 55
          25 163 239 80 147 74
          260 5 193 108 132 183
          140 4 231 164 261 184
          9 195 76 213 52 139
          224 273 285 291 292 293
          294 302 320 326 335 336
          342 378 379 397 64 104
          68 21 29 251 65 122
          262 170 232 28 178 219
          8 94 83 205 63 255
          233 234 114 53 201 144
          263 165 153 252 70 171
          253 194 240 31 27 128
          172 100 254 180 112 16
          214 71 202 98 143 274
          282 281 295 296 297 303
          307 321 322 323 327 328
          337 338 339 340 358 359
          360 361 380 381 382 383
          399 400 401 402 403 404
          247 125
        </DataArray>
        <DataArray type="Int32" Name="type" format="ascii" RangeMin="1" RangeMax="2">
          2 2 2 1 1 2
          2 1 1 1 1 1
          1 1 1 1 1 1
          1 1 1 1 2 2
          2 1 2 2 1 1
          1 1 2 2 1 2
          2 1 1 2 2 1
          1 2 1 2 1 1
          2 2 2 2 2 2
          1 2 2 2 2 2
          2 2 1 2 2 2
          2 2 2 2 2 2
          2 2 2 1 1 2
          2 2 2 2 2 2
          2 2 2 2 2 2
          2 1 2 2 2 2
          1 1 1 2 1 2
          1 2 1 1 1 2
          2 2 1 1 2 1
          1 1 1 2 1 1
          1 2 2 1 2 2
          1 1 2 2 1 2
          1 2 2 2 2 2
          2 1 2 2 2 1
          2 2 2 2 2 2
          1 2 1 2 1 2
          2 1 2 2 1 2
          1 1 1 2 1 1
          1 1 2 2 1 2
          1 2 2 2 1 1
          2 2 1 1 1 1
          1 2 1 1 1 2
          2 2 2 2 1 2
          2 2 2 2 1 2
          2 2 2 2 2 2
          2 1 1 1 2 1
          2 1 2 1 1 2
          1 2 1 2 2 2
          1 1 1 1 1 1
          1 1 1 1 1 1
          1 1 1 1 1 1
          2 2 1 1 2 2
          1 2 2 2 2 2
          1 2 2 2 2 2
          1 1 1 1 1 1
          2 1 2 2 2 2
          2 2 2 2 2 1
          1 2 2 1 1 2
          2 1 1 2 2 2
          1 1 2 2 2 2
          1 2 2 2 1 2
          1 2 1 2 2 2
          2 2 2 1 2 2
          1 2 2 2 2 1
          2 1 1 2 2 2
          2 2 2 1 2 1
          1 1 1 1 2 1
          2 2 2 1 2 2
          2 2 1 2 2 2
          2 1 2 1 1 2
          2 1 2 2 2 1
          2 2 2 1 2 2
          2 2 2 2 2 2
          1 2 2 2 1 1
          2 2 2 2 2 2
          2 2 2 2 2 2
          2 2 2 2 2 2
          2 2
        </DataArray>
        <DataArray type="Float64" Name="diameter" format="ascii" RangeMin="7.953989324e-07" RangeMax="1.9687550359e-06">
          9.8903722526e-07 9.8063641985e-07 1.0127843725e-06 1.8106509506e-06 1.7568629634e-06 8.5514001497e-07
          9.1437067697e-07 1.8786753848e-06 1.8663342765e-06 1.902053197e-06 1.5592650532e-06 1.7192577736e-06
          1.9256704446e-06 1.6319942311e-06 1.9465052725e-06 1.7102222142e-06 1.8075359776e-06 1.7100441568e-06
          1.9362979996e-06 1.666371426e-06 1.6500324665e-06 1.5820239054e-06 1.0427077727e-06 9.3400036902e-07
          9.2264399168e-07 1.5501475658e-06 8.7732236253e-07 8.5369629045e-07 1.5868003989e-06 1.749618439e-06
          1.9563918413e-06 1.8429840466e-06 8.9339390116e-07 8.3848641856e-07 1.6925875215e-06 9.9471105933e-07
          1.0554845473e-06 1.6141566089e-06 1.9360184717e-06 8.3574853958e-07 8.8747422377e-07 1.7980537818e-06
          1.7117148242e-06 1.0348445113e-06 1.6250721312e-06 9.6094823246e-07 1.7620471103e-06 1.6040786394e-06
          9.3431727252e-07 8.2248848169e-07 8.836963965e-07 9.1373292633e-07 8.9944178731e-07 8.9274450936e-07
          1.7653761392e-06 1.0251915292e-06 9.5766753783e-07 1.0309019316e-06 9.5467487175e-07 9.2634059468e-07
          8.6205387299e-07 9.7402460616e-07 1.7034226577e-06 1.002907464e-06 9.4102099744e-07 1.0434778351e-06
          1.0392166652e-06 8.5850768146e-07 1.0281816326e-06 9.2342462818e-07 9.4415382879e-07 9.6365897113e-07
          9.6150423673e-07 9.631665543e-07 8.4693172193e-07 1.5332045238e-06 1.5435740804e-06 8.6128447491e-07
          9.3407041658e-07 8.356139829e-07 9.3603707796e-07 8.2650440479e-07 8.8054588663e-07 8.7839623247e-07
          8.3768001137e-07 8.4073264751e-07 8.3027002112e-07 8.414875412e-07 9.4471392744e-07 9.4635949825e-07
          8.6526151591e-07 1.6418542475e-06 1.0407996203e-06 8.938991416e-07 1.051573032e-06 9.5168897771e-07
          1.5756078625e-06 1.6507826145e-06 1.8675481443e-06 9.24574592e-07 1.7434269619e-06 8.0443001665e-07
          1.7976268078e-06 1.0214517561e-06 1.7066354675e-06 1.7017939572e-06 1.8020090671e-06 9.2538587593e-07
          9.135104335e-07 9.9140217861e-07 1.725280523e-06 1.5766164972e-06 9.7636166219e-07 1.6565855033e-06
          1.6955437678e-06 1.5822808664e-06 1.6682161584e-06 1.038878508e-06 1.7850672125e-06 1.7685003762e-06
          1.5770520592e-06 1.0263976299e-06 8.8329782807e-07 1.7511656929e-06 8.96502285e-07 9.3038811018e-07
          1.9486166748e-06 1.8393880951e-06 1.0632413295e-06 1.0496194033e-06 1.5908490679e-06 8.1368241425e-07
          1.6452314998e-06 9.3960792104e-07 9.3072026933e-07 9.3429939253e-07 9.5956626421e-07 9.8433935201e-07
          9.8862549661e-07 1.6062333972e-06 8.7624803834e-07 9.0036387962e-07 9.1840241547e-07 1.5693210517e-06
          8.209482375e-07 8.3416772825e-07 8.9905695122e-07 9.5756098845e-07 9.3600539808e-07 8.6771016641e-07
          1.5780501413e-06 8.2720456128e-07 1.5598122992e-06 1.0452866206e-06 1.6518209337e-06 9.14295139e-07
          8.5739861062e-07 1.7009746475e-06 9.1494704351e-07 9.5221137091e-07 1.7445235402e-06 1.0376399765e-06
          1.5808861055e-06 1.6512849088e-06 1.9105638174e-06 8.9321676181e-07 1.8926598836e-06 1.7977404946e-06
          1.7496220703e-06 1.767648962e-06 9.7565604425e-07 9.5597486389e-07 1.8046112269e-06 1.0441046923e-06
          1.9270960989e-06 9.6734421267e-07 8.4157668894e-07 9.521825331e-07 1.7099660229e-06 1.829551362e-06
          8.7635158602e-07 1.0112454343e-06 1.5639424464e-06 1.8961264992e-06 1.6418807811e-06 1.492036987e-06
          1.5642043515e-06 9.0020040197e-07 1.8760618815e-06 1.6699821377e-06 1.6181031548e-06 1.0337633714e-06
          1.0586755254e-06 1.0226568356e-06 1.055566903e-06 9.310834199e-07 1.6318283586e-06 9.4404878295e-07
          9.7387248548e-07 9.3467320723e-07 9.5650049047e-07 8.5817122035e-07 1.5943412424e-06 8.8145192667e-07
          9.5845278759e-07 8.5161771019e-07 9.5775571894e-07 8.6120843164e-07 9.1951070106e-07 8.6887588144e-07
          9.1618015254e-07 1.5707480634e-06 1.583149471e-06 1.4974278294e-06 9.0900705607e-07 1.6325166956e-06
          9.0981954947e-07 1.70272784e-06 1.0520856128e-06 1.8532761643e-06 1.6349307926e-06 1.0431492792e-06
          1.9687550359e-06 9.0824429493e-07 1.9350498965e-06 9.101104609e-07 9.7292601788e-07 9.0642639381e-07
          1.5780501584e-06 1.5650986196e-06 1.6839741481e-06 1.6682162029e-06 1.6556099347e-06 1.7788034632e-06
          1.8671419334e-06 1.6333140382e-06 1.7679937275e-06 1.6793265079e-06 1.7499820533e-06 1.5794864071e-06
          1.6887649462e-06 1.8242370002e-06 1.8393881435e-06 1.7249780191e-06 1.5599472798e-06 1.604177429e-06
          9.9363149038e-07 9.8145999418e-07 1.6327612838e-06 1.610187338e-06 9.3351886932e-07 9.0853338623e-07
          1.5707480808e-06 8.5383742752e-07 7.953989324e-07 9.5140036101e-07 8.1991584069e-07 8.9775590621e-07
          1.8471892176e-06 9.8187932055e-07 1.0612048266e-06 1.0515613075e-06 9.8371865889e-07 9.7973663067e-07
          1.5748886159e-06 1.6689144053e-06 1.9007051949e-06 1.7264483394e-06 1.8091049846e-06 1.6799452758e-06
          1.0090202999e-06 1.6543895062e-06 9.8174749106e-07 9.2319111545e-07 8.5989458145e-07 8.9240464594e-07
          8.4841671475e-07 8.8310846529e-07 8.464275527e-07 1.0148511711e-06 8.8975648764e-07 1.6909053436e-06
          1.8556460427e-06 8.9888520313e-07 1.0469653154e-06 1.7359567218e-06 1.6480322939e-06 1.0212947536e-06
          8.7962919641e-07 1.6323638339e-06 1.6390246309e-06 9.0479769236e-07 1.0312711744e-06 1.0544286764e-06
          1.8235883854e-06 1.7411533515e-06 1.0510781203e-06 8.6187128523e-07 1.0241756925e-06 1.024126585e-06
          1.7650057508e-06 1.0255001264e-06 9.7122500933e-07 9.576992542e-07 1.6875435755e-06 1.0017352564e-06
          1.6283215055e-06 1.0541333371e-06 1.5335510932e-06 9.3774889863e-07 9.7439304356e-07 9.6277440444e-07
          9.907656936e-07 9.8477878188e-07 9.9602828804e-07 1.5497376873e-06 9.6193461414e-07 8.8180549497e-07
          1.4821925877e-06 8.6717649454e-07 8.9609837653e-07 8.6487723111e-07 1.0095773559e-06 1.8854138438e-06
          1.0162361051e-06 1.9223677349e-06 1.6213215027e-06 8.733936142e-07 8.2437231055e-07 9.3158897064e-07
          1.0019299485e-06 8.7615997114e-07 9.2668893411e-07 1.6674084555e-06 9.4874819895e-07 1.6255019051e-06
          1.7113272147e-06 1.7144371097e-06 1.7840572945e-06 1.6276566201e-06 9.0559045921e-07 1.6074527909e-06
          8.9092990126e-07 8.4118749877e-07 8.9874367292e-07 1.9563918602e-06 1.0463198931e-06 8.8681809545e-07
          1.0516228555e-06 8.1436334337e-07 1.7214482229e-06 9.176223029e-07 8.7972647253e-07 1.0380049236e-06
          9.1592337228e-07 1.6052646722e-06 8.3674884961e-07 1.9184278555e-06 1.6704612536e-06 1.0564575364e-06
          1.0177251565e-06 1.8346019658e-06 9.0071990605e-07 9.2167700949e-07 9.485974024e-07 1.7699773004e-06
          9.8868085234e-07 9.4924415507e-07 9.4487641388e-07 1.5547053868e-06 1.0149730019e-06 1.0581722408e-06
          1.0385898969e-06 1.0259851129e-06 1.0154520249e-06 9.2823382599e-07 9.7849390717e-07 1.0301089178e-06
          1.6419577348e-06 9.0339740218e-07 1.0092426676e-06 8.9426698349e-07 1.5567657864e-06 1.5066012829e-06
          9.2501638102e-07 9.4181647932e-07 8.9594775546e-07 8.9893820112e-07 8.6206888187e-07 8.9776512221e-07
          8.9346362697e-07 8.5398210037e-07 9.0996385165e-07 8.3602123754e-07 8.9821852025e-07 8.3278894677e-07
          8.4669825183e-07 8.5086602455e-07 7.9735828345e-07 8.7659044946e-07 8.5012798103e-07 8.5903373306e-07
          1.0620676223e-06 8.3097944345e-07
        </DataArray>
      </PointData>
      <CellData>
      </CellData>
      <Points>
        <DataArray type="Float32" Name="Points" NumberOfComponents="3" format="ascii" RangeMin="9.7618326979e-06" RangeMax="0.00013241944654">
          1.917994814e-05 2.3596137908e-05 4.8209653869e-07 1.8719350919e-05 2.2792548407e-05 7.7885414385e-07
          2.0515930373e-05 2.3865602998e-05 1.1525288528e-06 4.9559257604e-06 8.5839410531e-06 1.896693675e-06
          1.2833291294e-05 1.7038459191e-05 1.7410905002e-06 2.0518196834e-05 2.2992995582e-05 2.1102630399e-06
          1.9342989617e-05 2.2845870262e-05 1.6149006115e-06 4.0633040044e-05 1.5516270651e-05 2.2090202947e-06
          1.3381062672e-05 1.552179674e-05 2.560378789e-06 4.9438212955e-06 7.6566875578e-06 3.4967333704e-06
          4.126668864e-05 1.5087936845e-05 3.7602283101e-06 4.1564482672e-05 1.5726389393e-05 5.2234076975e-06
          3.1427814974e-05 8.1648131527e-06 5.4795891629e-06 1.7941234546e-05 5.4087258832e-06 6.2835802055e-06
          1.4698431414e-06 9.2452692115e-06 6.2704357333e-06 3.2135827496e-05 9.144860087e-06 6.8119902608e-06
          2.0522584236e-06 1.0903762814e-05 6.9487200562e-06 2.5851657483e-05 1.6644291463e-05 6.557076631e-06
          1.4600000213e-05 8.9300001491e-06 7.4399999903e-06 4.612021803e-05 1.0832196494e-05 7.861953236e-06
          2.5356555852e-05 1.695062565e-05 8.1367215898e-06 4.6665962145e-05 1.2329885067e-05 8.0336985775e-06
          2.0299776224e-05 2.3931173928e-05 2.1195639874e-06 2.0095742002e-05 2.3353928555e-05 4.5060804155e-07
          1.8554455892e-05 2.3417855118e-05 1.4478264347e-06 1.6495938326e-05 5.9766662162e-06 6.0621159719e-06
          1.916286601e-05 2.3316448278e-05 2.3184179554e-06 2.0050851163e-05 2.2741805878e-05 1.462819796e-06
          1.3710221538e-05 3.8497411879e-05 9.1739144636e-07 1.4084379472e-05 3.8605623558e-05 2.5303379516e-06
          1.4506836123e-05 4.0402075683e-05 2.2925087251e-06 2.9406050089e-05 4.0663388063e-05 3.4703930396e-06
          4.5657307055e-05 4.1027240513e-05 3.279463499e-06 4.6499877499e-05 4.0799324779e-05 4.2466490413e-06
          3.9046244638e-05 3.9102596929e-05 4.9904620028e-06 4.5028540626e-05 4.0278566303e-05 4.6013797146e-06
          4.6224260586e-05 4.1941206291e-05 4.5367933126e-06 3.1759820558e-05 4.8482583225e-05 4.9475715969e-06
          2.9393699151e-05 3.9717269829e-05 5.102983323e-06 4.4890410209e-05 4.1125847929e-05 5.7830634432e-06
          4.5858865633e-05 4.1881092329e-05 5.2015579968e-06 3.9568058128e-05 3.765780275e-05 5.7709294197e-06
          1.721263834e-05 3.9811391616e-05 5.5195678215e-06 4.5681463234e-05 4.0678067307e-05 5.9202329794e-06
          1.7773505533e-05 4.1350580432e-05 5.6960716392e-06 4.6536938498e-06 3.262942846e-05 5.7565721363e-06
          3.1743995351e-05 4.9776164815e-05 6.1973605625e-06 4.5921228775e-06 2.9542397897e-05 7.5878738244e-06
          4.6431819101e-06 3.3227315726e-05 6.4858695623e-06 5.1070469453e-06 3.3920459828e-05 6.356870017e-06
          5.9365415837e-06 3.2800238841e-05 7.3622563832e-06 6.6694628913e-06 3.3603766497e-05 6.8960030148e-06
          3.7274821807e-05 3.9786391426e-05 7.254623597e-06 3.653280146e-05 3.951481267e-05 6.897689218e-06
          6.2182712099e-06 2.9164672014e-05 7.9088522398e-06 4.1391349441e-06 3.2782889321e-05 7.9149194789e-06
          5.4463253036e-06 3.3850188629e-05 7.8314724306e-06 3.7055015127e-05 4.0718423406e-05 7.2373418334e-06
          5.0811081564e-06 3.2442818338e-05 8.0953923316e-06 3.8572419726e-05 3.9749043935e-05 8.0693789641e-06
          3.6889570765e-05 4.1018709453e-05 8.4035791588e-06 3.5159042454e-05 4.0625822294e-05 9.0529474619e-06
          5.106513072e-06 2.9710827221e-05 9.155070984e-06 3.6930592614e-05 4.0403170715e-05 9.4770102805e-06
          3.818470941e-05 3.9942686271e-05 8.8868027888e-06 4.5360859076e-05 4.151973917e-05 4.1920543481e-06
          3.9471328819e-06 3.2029911381e-05 7.2493367043e-06 3.6200894101e-05 4.0892391553e-05 8.5520377979e-06
          4.4806743063e-06 3.1755964301e-05 6.1110672505e-06 3.7144287489e-05 3.9662434574e-05 8.9523919087e-06
          4.6046234274e-06 3.3539010474e-05 7.5713815022e-06 3.7646550481e-05 3.9852300688e-05 8.1211464931e-06
          3.8024911191e-05 4.0597435145e-05 9.5262166724e-06 3.7543686631e-05 3.894692054e-05 7.4565177783e-06
          4.9013369789e-06 3.2984244172e-05 8.7649241323e-06 3.0316519769e-05 4.9049740483e-05 4.7264134082e-06
          4.6014879445e-06 2.9499966331e-05 6.021966783e-06 4.512117448e-05 4.0504390199e-05 3.7286486076e-06
          4.4816879381e-05 4.1150218749e-05 4.9051782298e-06 4.7533039833e-06 3.2686020859e-05 7.1394970291e-06
          4.5374022193e-06 3.420367284e-05 6.9344055191e-06 6.1613532125e-06 3.4058844903e-05 7.3776695899e-06
          3.684060357e-05 4.0239814552e-05 8.0229128798e-06 4.6244833356e-05 4.1265138861e-05 3.5938855945e-06
          4.6097349696e-05 4.1301384044e-05 5.7690681388e-06 5.6164949456e-06 3.3101681765e-05 6.6407360464e-06
          3.6271208955e-05 4.0307932068e-05 6.7734727054e-06 3.6113193346e-05 4.0690836613e-05 9.3555881904e-06
          3.5787241359e-05 6.9987559982e-05 1.7005730797e-06 3.6735698814e-05 6.968848902e-05 1.8058622118e-06
          3.6647983507e-05 7.11175162e-05 1.606402634e-06 3.5901666706e-05 7.2351933341e-05 1.444389909e-06
          3.8186190068e-05 7.0575268182e-05 2.4266212222e-06 3.5234505049e-05 6.959935854e-05 2.7713119835e-06
          3.7042784243e-05 6.9380526838e-05 2.7592418519e-06 3.6431552871e-05 7.0939931902e-05 3.0324606541e-06
          3.2497273423e-06 5.7184992329e-05 2.4550186026e-06 3.4877473809e-05 7.0744419645e-05 3.1604831747e-06
          1.5969684682e-05 6.7333137849e-05 3.6295564314e-06 4.1030066313e-06 7.3128750955e-05 3.5297623526e-06
          3.5350189137e-05 7.2008049756e-05 4.1937582864e-06 4.0940576582e-06 7.3636620073e-05 4.7371868277e-06
          4.0024492591e-06 5.6385662901e-05 4.9696031965e-06 5.0875983106e-06 7.3579431046e-05 4.5369670261e-06
          4.6376972023e-06 5.8148874814e-05 5.1166684898e-06 9.2217205747e-06 6.7021770519e-05 5.0614989959e-06
          1.5438539776e-05 6.7661771027e-05 5.3241988098e-06 5.6494191085e-06 7.2628237831e-05 4.7771090976e-06
          4.5307351684e-06 7.300642028e-05 5.0633175306e-06 3.151523515e-06 7.3592891567e-05 5.7553725128e-06
          1.0087025657e-05 5.4759042541e-05 5.540033726e-06 2.3304819479e-05 6.5060914494e-05 5.2465989029e-06
          3.9869191824e-06 7.3152397817e-05 6.9080711e-06 9.2684194897e-06 5.3465366364e-05 6.2466347117e-06
          5.8230607465e-06 6.2778774009e-05 6.4153186941e-06 2.4295715775e-05 6.3504143327e-05 6.4938549258e-06
          4.9150908126e-06 7.0333764597e-05 6.2015483309e-06 4.5230653996e-06 7.2285773058e-05 5.8426180658e-06
          7.4070676419e-06 6.2146864366e-05 6.6488387347e-06 9.2600976132e-06 6.7012842919e-05 6.7695050348e-06
          9.7569818536e-06 6.8717548857e-05 5.7841943999e-06 4.3760151129e-06 7.3994669947e-05 6.5543254095e-06
          2.9251090382e-05 7.321794692e-05 6.6057004915e-06 2.2955320674e-05 6.4228595875e-05 7.177371117e-06
          2.8247195587e-05 7.3955190601e-05 7.1659478635e-06 2.9633782106e-05 7.3444782174e-05 7.4393910836e-06
          7.3231094575e-06 6.3490610046e-05 7.9109368016e-06 5.3643461797e-06 7.0681271609e-05 7.8706652857e-06
          3.7343113945e-05 7.0460104325e-05 1.8427277837e-06 4.8947999858e-06 7.310622459e-05 6.3005818447e-06
          3.4710243199e-05 7.2222523158e-05 2.5278154681e-06 2.9931801691e-05 7.3673232691e-05 6.658048278e-06
          9.9504259197e-06 6.880654837e-05 7.3756650636e-06 4.8758570301e-06 7.3715411418e-05 5.5198074733e-06
          3.2680811728e-06 7.3443297879e-05 4.8341203183e-06 3.5040306102e-05 6.9441382948e-05 1.6389632265e-06
          3.6188175727e-05 6.8983397796e-05 1.5555144728e-06 3.6124834878e-05 6.9634632382e-05 2.5084095796e-06
          3.9274887058e-06 7.2254944826e-05 3.8300086089e-06 4.2285710151e-06 5.7462206314e-05 3.6744850149e-06
          3.6773530155e-05 7.0260000939e-05 2.5817676033e-06 3.6982637539e-06 7.2762144555e-05 5.2380496527e-06
          2.8387999919e-05 7.3387898738e-05 6.4893520175e-06 2.2929494662e-05 6.5972715674e-05 6.4628302425e-06
          5.509175935e-06 7.3137627624e-05 5.4500801525e-06 3.6138248106e-05 7.0652691647e-05 2.0724485239e-06
          4.0760869524e-06 7.3708681157e-05 3.9063361328e-06 4.9503509217e-05 8.3717466623e-05 4.7139187132e-07
          4.8595404223e-05 8.4186511231e-05 8.702171499e-07 4.958129648e-05 8.4451385192e-05 9.5448342563e-07
          3.8559046516e-05 8.4123093984e-05 7.8305498619e-07 9.2860000223e-06 8.5975276306e-05 4.4426674322e-06
          8.7879498096e-06 8.3163431555e-05 1.5838336367e-06 4.9009555369e-05 8.4706938651e-05 1.6409323962e-06
          5.2132290875e-06 7.782830653e-05 2.148606427e-06 4.9700691306e-05 8.5582105385e-05 2.0703191694e-06
          4.9318194215e-05 8.4054641775e-05 3.1580343602e-06 3.9487265894e-05 8.4576560766e-05 2.8174665658e-06
          6.7122982728e-06 8.5876970843e-05 1.9601729946e-06 7.6789146988e-06 8.6715735961e-05 2.498916956e-06
          5.068653536e-06 7.9024561273e-05 3.3320807233e-06 6.8413478402e-06 8.6360210844e-05 3.6704277591e-06
          4.3922689656e-05 7.6309232099e-05 3.5512700833e-06 6.4924438448e-06 8.0371471995e-05 4.1355860958e-06
          8.5807032519e-06 8.4172810602e-05 3.5911093619e-06 6.7770092755e-06 8.7892301963e-05 3.678220537e-06
          4.0069680836e-05 9.1258254542e-05 3.8932616917e-06 3.8367466914e-05 9.1927147878e-05 3.6324302073e-06
          4.2614246922e-05 7.7130345744e-05 4.115946922e-06 3.9115566324e-05 8.4645253082e-05 4.489091225e-06
          8.2226179074e-06 8.6058127636e-05 4.4120497478e-06 7.7969871199e-06 8.7400941993e-05 4.6006903176e-06
          2.4961625968e-05 8.9264620328e-05 4.1805456021e-06 6.8757117333e-06 8.7528234872e-05 4.9013374337e-06
          4.5572222007e-05 7.7900476754e-05 5.3068488342e-06 8.667129805e-06 8.677533333e-05 4.8381339184e-06
          2.9022405215e-05 7.4766729085e-05 5.1726287893e-06 3.04473906e-05 7.4584320828e-05 5.6422709349e-06
          4.7736335546e-05 7.7332173532e-05 5.8923778852e-06 4.6213943278e-05 7.9661556811e-05 5.5087971305e-06
          9.0506209744e-06 8.6547428509e-05 3.8825510273e-06 2.8780086723e-05 7.4973089795e-05 6.7055839281e-06
          2.5004825147e-05 8.9662702521e-05 5.7986412685e-06 1.1915254618e-05 7.608839951e-05 6.9341126618e-06
          4.6917692089e-05 7.6038304542e-05 6.6008633439e-06 4.728282147e-05 9.5524301287e-05 7.1346935329e-06
          1.240423353e-05 7.4428236985e-05 7.0269406933e-06 2.9457500204e-05 7.5362499047e-05 7.9772280515e-06
          4.8044068535e-05 7.767626812e-05 7.6174947026e-06 4.8355042964e-05 9.460956062e-05 7.8067287177e-06
          4.7075907787e-05 9.4532711955e-05 8.8273627625e-06 4.8277499445e-05 8.4004917881e-05 1.8017951788e-06
          6.3863276409e-06 8.6693362391e-05 4.5570113798e-06 7.3885726124e-06 8.6508778622e-05 4.6387040129e-06
          5.0805656429e-06 7.452051068e-05 6.0368424784e-06 2.8969057894e-05 7.4228169979e-05 6.1509413172e-06
          1.2597946807e-05 7.451736019e-05 8.6206291599e-06 4.8666413932e-05 8.3331236965e-05 5.1507186072e-07
          4.7694098612e-05 8.4378705651e-05 8.5986619069e-07 6.7511286943e-06 8.6381391156e-05 2.7077362574e-06
          7.3310357038e-06 8.71903394e-05 3.8195362322e-06 8.3913319031e-06 8.7234067905e-05 5.5737791627e-06
          2.6010386136e-05 8.9802189905e-05 6.9831839937e-06 4.9173650041e-05 8.5021609266e-05 2.5286069558e-06
          4.9374280934e-05 8.3905404608e-05 2.2853187147e-06 7.7695722212e-06 8.621388406e-05 3.2166387882e-06
          2.845283052e-05 7.5045252743e-05 5.7905181166e-06 2.9853863452e-05 7.4982075603e-05 6.1643399931e-06
          2.9708988222e-05 7.4573901657e-05 7.6343367255e-06 2.9103368433e-05 7.4114534073e-05 7.2050825111e-06
          2.840525849e-05 7.4289717304e-05 7.9790825112e-06 3.8163707359e-05 8.5061874415e-05 1.997022764e-06
          9.5124887594e-06 8.4490617155e-05 1.9843880636e-06 5.5550349316e-06 8.0838224676e-05 2.969737352e-06
          4.9158654292e-05 8.5022766143e-05 4.4116936238e-07 4.8060486733e-05 9.5796189271e-05 5.8069445004e-06
          2.9844855817e-05 7.4154537288e-05 5.9697149482e-06 5.6807803048e-05 2.3444465114e-05 1.9079950562e-06
          5.0344813644e-05 1.3555941223e-05 2.3266391054e-06 6.3422150561e-05 1.4969311451e-05 2.2844239993e-06
          5.6007662351e-05 2.2179972802e-05 2.5986566925e-06 5.037443043e-05 1.2813758076e-05 3.0297067042e-06
          6.399214908e-05 1.3391111679e-05 3.1369550015e-06 5.1195846027e-05 1.3592829418e-05 3.1351382859e-06
          5.8781890402e-05 5.3755866247e-06 4.3106178964e-06 5.1509636251e-05 1.2924208932e-05 4.6968984861e-06
          5.0179951359e-05 1.2745969798e-05 3.999776709e-06 5.1028477174e-05 1.3980178664e-05 4.5377792048e-06
          8.0309160694e-05 1.8429949705e-05 3.6206167806e-06 9.3499176728e-05 8.0366489783e-06 3.9932560867e-06
          9.2971968115e-05 1.6022435375e-05 4.6924733397e-06 8.7185093435e-05 3.383765943e-06 5.8615482885e-06
          5.5016760598e-05 1.7052228941e-05 4.9623349696e-06 8.0401550804e-05 1.8087755961e-05 5.9266931203e-06
          5.8226352849e-05 5.7193142311e-06 6.0830880102e-06 9.3552269391e-05 6.4921437115e-06 6.0352422224e-06
          7.1713744546e-05 1.2380232874e-05 6.2646904553e-06 7.0123373007e-05 1.3005183064e-05 6.0209963522e-06
          9.3010443379e-05 1.6013902496e-05 6.3988782131e-06 9.3150258181e-05 1.7668819055e-05 5.5453710956e-06
          8.0989651906e-05 1.9701697966e-05 6.1117693804e-06 5.5144300859e-05 1.7976588424e-05 6.8779359026e-06
          8.7634347437e-05 3.7312686345e-06 7.5306652434e-06 9.3631490017e-05 7.7691311162e-06 7.1449944699e-06
          9.3723327154e-05 2.3508830054e-05 7.1609947554e-06 5.3839874454e-05 1.6896130546e-05 6.0479624153e-06
          5.131846774e-05 1.3367483007e-05 2.4134203613e-06 5.0168153393e-05 1.362123021e-05 3.5962689253e-06
          9.3769522209e-05 8.2719661805e-06 5.5567356867e-06 9.4061280834e-05 1.7853959434e-05 6.853445484e-06
          5.0080256187e-05 1.3274931007e-05 4.7615740186e-06 5.1104310842e-05 1.2662005247e-05 3.9456390368e-06
          7.9933495726e-05 1.9342582164e-05 4.8379542932e-06 5.1837254432e-05 1.3754465726e-05 4.5648616833e-06
          5.1456590882e-05 1.3603695152e-05 3.927536909e-06 5.2685809351e-05 4.8572925152e-05 8.360245829e-07
          5.368325219e-05 4.8837122449e-05 8.5960772367e-07 5.2421568398e-05 4.8150101065e-05 2.1820665097e-06
          5.7141536672e-05 3.8431651774e-05 2.2883702968e-06 5.349791536e-05 4.8989684728e-05 2.070908522e-06
          5.2408024203e-05 4.9034686526e-05 2.583592277e-06 5.2597657486e-05 4.7914352763e-05 3.0915912248e-06
          5.3899831983e-05 4.8227808293e-05 3.56199007e-06 5.3384766943e-05 4.9328700698e-05 3.4328877518e-06
          5.7903136621e-05 3.8989688619e-05 3.708317081e-06 7.2474707849e-05 4.9249720178e-05 4.8078327382e-06
          8.7412154244e-05 4.9580328778e-05 5.6047747421e-06 9.2413538368e-05 2.4330789529e-05 7.7262511695e-06
          8.8324857643e-05 2.511650564e-05 7.7695694927e-06 8.8857261289e-05 2.6632584195e-05 8.3896102296e-06
          5.2479608712e-05 4.8633006372e-05 3.7637623791e-06 5.7790130086e-05 3.8050802686e-05 5.0101648412e-06
          5.3522177041e-05 4.794605411e-05 2.7140251859e-06 5.4327938415e-05 4.9113645218e-05 3.5590187508e-06
          5.388304271e-05 4.8810965382e-05 2.8814256439e-06 5.2826144383e-05 4.7879570047e-05 1.4525728602e-06
          5.273923307e-05 4.9086131185e-05 1.5475844748e-06 5.3786177887e-05 4.83562726e-05 1.5338303001e-06
          7.3989896919e-05 7.2874747275e-05 4.1275376361e-07 7.4944196967e-05 7.3377908848e-05 8.4579261284e-07
          7.3623239587e-05 7.3329261795e-05 1.1789941254e-06 5.20845133e-05 5.3291121731e-05 2.4212076823e-06
          9.2435235274e-05 5.3495081374e-05 1.9435492504e-06 7.4172232416e-05 7.3298586358e-05 1.6496982198e-06
          7.3940711445e-05 7.3809627793e-05 2.4182852485e-06 5.3143910918e-05 5.4123920563e-05 3.4962026803e-06
          9.3128357548e-05 5.4454521887e-05 3.2479347283e-06 7.9380552052e-05 7.0412403147e-05 3.0012781735e-06
          8.0006517237e-05 6.9882044045e-05 3.66887366e-06 7.4126095569e-05 7.0948328357e-05 3.6938033645e-06
          7.6570308011e-05 5.6902754295e-05 4.110322152e-06 7.428862591e-05 5.7481775002e-05 4.3553077376e-06
          7.9575569544e-05 6.9944224379e-05 4.7133480621e-06 7.9425357399e-05 7.1290727647e-05 4.3662839744e-06
          5.2776671509e-05 5.2866726037e-05 4.6982154345e-06 7.693637599e-05 5.5681342928e-05 5.2165960369e-06
          7.4756550021e-05 5.7720382756e-05 5.16054115e-06 7.6869451732e-05 5.7422366808e-05 5.2194855016e-06
          7.559164078e-05 5.8198107581e-05 4.8248498388e-06 7.9089237261e-05 7.09148444e-05 5.2535056057e-06
          8.7969943706e-05 5.1168692153e-05 6.2543763306e-06 7.4823728937e-05 5.727619282e-05 6.6471939135e-06
          7.6386495493e-05 5.7878885855e-05 6.2978419919e-06 7.7274242358e-05 5.7578796259e-05 6.408583431e-06
          8.0146048276e-05 6.664776447e-05 6.3849711296e-06 7.6242278737e-05 5.855541167e-05 6.9831662586e-06
          7.9662175267e-05 6.6947148298e-05 7.9287965491e-06 7.8626319009e-05 6.971500261e-05 4.4596959015e-06
          5.1860108215e-05 5.3115614719e-05 8.4518387666e-07 7.9079836723e-05 7.0493566454e-05 3.9132992242e-06
          7.8656667029e-05 7.0079644502e-05 5.5232976592e-06 7.5316478615e-05 5.7222412579e-05 5.8138057284e-06
          7.5410898717e-05 5.8033041569e-05 6.8479866968e-06 7.6153854025e-05 5.6945867982e-05 6.1976661527e-06
          7.518001803e-05 5.7417320932e-05 4.1242919906e-06 7.4660041719e-05 7.2413626185e-05 3.8618336475e-06
          7.3904695455e-05 7.246642781e-05 1.8387374894e-06 7.7429300291e-05 5.6818938901e-05 5.9407511799e-06
          7.3088900535e-05 5.0099901273e-05 5.9636763581e-06 7.9246710811e-05 6.9544759754e-05 3.7503791646e-06
          7.6044219895e-05 5.7586268667e-05 5.3928215493e-06 7.40507312e-05 7.3254959716e-05 9.0051202051e-07