<?xml version="1.0"?>
<VTKFile type="UnstructuredGrid" version="0.1" byte_order="LittleEndian" header_type="UInt32" compressor="vtkZLibDataCompressor">
  <UnstructuredGrid>
    <Piece NumberOfPoints="202" NumberOfCells="202">
      <PointData>
        <DataArray type="Int32" Name="id" format="ascii" RangeMin="1" RangeMax="202">
          133 174 75 19 134 59
          50 123 97 49 42 118
          131 15 22 44 3 196
          93 40 1 78 176 175
          54 150 117 24 7 124
          119 20 109 154 62 106
          84 141 161 137 61 166
          188 198 148 121 77 177
          32 51 60 85 105 81
          151 167 129 155 67 18
          92 160 145 135 14 26
          82 57 158 89 12 181
          186 189 192 111 64 37
          34 142 156 90 168 79
          46 35 101 157 2 126
          86 115 136 69 48 120
          72 149 39 13 99 30
          113 23 96 95 182 187
          199 200 110 43 127 56
          33 159 73 6 38 179
          146 47 87 116 17 173
          88 41 169 91 102 58
          10 190 197 107 11 162
          66 138 103 45 130 152
          36 191 125 55 163 25
          80 147 74 5 140 4
          132 108 164 9 76 139
          52 183 184 185 193 195
          68 104 21 29 65 170
          122 178 28 8 83 94
          114 144 63 53 165 153
          27 70 171 31 128 180
          16 112 172 100 71 98
          143 194 201 202
        </DataArray>
        <DataArray type="Int32" Name="type" format="ascii" RangeMin="1" RangeMax="2">
          2 2 2 1 1 1
          1 1 1 1 1 1
          1 1 1 1 1 1
          1 1 1 2 2 2
          1 1 1 1 1 2
          1 1 2 2 2 2
          1 2 2 2 2 1
          2 2 2 2 2 2
          1 1 1 1 2 1
          1 1 1 2 2 1
          1 1 1 2 1 1
          1 1 2 1 1 2
          1 2 1 2 2 1
          1 2 2 1 1 2
          1 1 1 2 1 1
          1 1 2 2 1 1
          2 2 1 1 1 1
          2 1 1 1 2 1
          2 2 1 1 2 1
          1 2 2 1 1 1
          1 1 1 1 1 1
          1 1 1 1 1 1
          1 2 1 2 1 2
          2 2 1 1 1 1
          1 2 2 1 2 1
          1 1 2 1 1 1
          2 2 2 1 2 2
          1 2 2 2 1 2
          2 1 1 1 2 2
          2 2 1 1 1 1
          2 2 2 1 2 1
          1 2 2 1 2 2
          1 2 2 1 2 1
          2 1 2 2
        </DataArray>
        <DataArray type="Float64" Name="diameter" format="ascii" RangeMin="7.9683998922e-07" RangeMax="1.9655382541e-06">
          1.0620148938e-06 9.7153240839e-07 9.0518924996e-07 1.6847662667e-06 1.6347178547e-06 1.7480613328e-06
          1.7365782224e-06 1.7698138092e-06 1.9263138497e-06 1.791789064e-06 1.8664862891e-06 1.811175373e-06
          1.5913197669e-06 1.6818678442e-06 1.8016777416e-06 1.5911540879e-06 1.905371417e-06 1.5353146769e-06
          1.9603309629e-06 1.8203745889e-06 1.7148514046e-06 9.6878636853e-07 9.3902706223e-07 9.2945408299e-07
          1.846085686e-06 1.5749111223e-06 1.8014176527e-06 1.6730448899e-06 1.9572182239e-06 9.4060139602e-07
          1.6395415662e-06 1.845718408e-06 1.0489679252e-06 9.6293460373e-07 1.0195828659e-06 1.0001269605e-06
          1.6426391463e-06 9.098917097e-07 9.4102396283e-07 9.0475287974e-07 1.0563628043e-06 1.5849929429e-06
          8.5226100724e-07 7.9683998922e-07 1.043199341e-06 9.9511254831e-07 9.7889912529e-07 9.2451126124e-07
          1.8953620447e-06 1.8652497733e-06 1.7377077068e-06 1.5360126938e-06 9.9850370242e-07 1.6726476186e-06
          1.5879824086e-06 1.5834775048e-06 1.6767251988e-06 1.0278749803e-06 9.277707275e-07 1.6053311611e-06
          1.8440414887e-06 1.5776618513e-06 1.5522341897e-06 9.1019352587e-07 1.6609612409e-06 1.9589449513e-06
          1.645546187e-06 1.8896279833e-06 1.0035295474e-06 1.8131400025e-06 1.7115054754e-06 8.7290464647e-07
          1.6222159812e-06 8.7331781026e-07 1.5414121255e-06 1.052599771e-06 1.0238007634e-06 1.845718333e-06
          1.8423888671e-06 9.12076739e-07 9.6325570199e-07 1.5369788314e-06 1.5827151606e-06 1.0144126749e-06
          1.8500545877e-06 1.9572181921e-06 1.777732733e-06 9.7326755462e-07 1.7610735627e-06 1.6727533986e-06
          1.644753964e-06 1.6791464378e-06 9.255189609e-07 9.0372869984e-07 1.7931156278e-06 1.7023526352e-06
          1.0428433801e-06 9.8490275833e-07 1.9655382541e-06 1.851439903e-06 1.7642991523e-06 1.8351918609e-06
          1.0051830844e-06 1.8742338119e-06 1.7456295226e-06 1.92783295e-06 8.7182228374e-07 1.6232363382e-06
          7.9876389393e-07 8.0590523819e-07 1.7244279744e-06 1.9572182312e-06 8.9664283939e-07 1.8318782333e-06
          1.8005164209e-06 1.0283068655e-06 9.5820745742e-07 1.8457183433e-06 1.8753053313e-06 1.5668966041e-06
          1.5522342127e-06 1.9112416417e-06 1.6551329681e-06 1.7373297226e-06 1.6450747573e-06 1.5625720863e-06
          1.6283153472e-06 1.8698413084e-06 1.5713543148e-06 1.5197586155e-06 1.6974077365e-06 1.7115055005e-06
          1.9312948292e-06 8.8749030305e-07 1.6050496994e-06 9.7652928537e-07 1.7187642206e-06 9.6653022822e-07
          1.0434276055e-06 8.6712672363e-07 1.8940292664e-06 1.853524581e-06 1.7685595116e-06 1.6833277603e-06
          1.5631478109e-06 9.0937940169e-07 9.568143773e-07 1.8945468528e-06 9.8500289266e-07 1.7266330856e-06
          1.6152651118e-06 1.5334535776e-06 9.4096534871e-07 1.8664862799e-06 1.6968042182e-06 1.6201004346e-06
          9.2317591813e-07 9.9705335654e-07 9.4165683916e-07 1.6422945042e-06 1.0557796332e-06 8.7913912505e-07
          1.9442565466e-06 8.8534586826e-07 8.8564307119e-07 9.0275169088e-07 1.525072165e-06 8.7767107301e-07
          9.0820279033e-07 1.7543313128e-06 1.788715991e-06 1.8636448841e-06 9.7315990701e-07 9.3382434028e-07
          1.0022525871e-06 8.7772710737e-07 1.8652497667e-06 1.9572181971e-06 1.660021516e-06 1.9603309754e-06
          8.1549302533e-07 1.008548715e-06 9.9824937217e-07 1.820374599e-06 9.3921535728e-07 1.6017653006e-06
          1.9221009576e-06 9.677961279e-07 9.6313168631e-07 1.7850500168e-06 9.6474643291e-07 8.6303773368e-07
          1.6469204003e-06 9.814078653e-07 9.2435714185e-07 1.7070520824e-06 1.0473801646e-06 1.8751599294e-06
          8.8771256442e-07 1.493659348e-06 8.7828628721e-07 8.2130519064e-07
        </DataArray>
      </PointData>
      <CellData>
      </CellData>
      <Points>
        <DataArray type="Float32" Name="Points" NumberOfComponents="3" format="ascii" RangeMin="9.7672152958e-06" RangeMax="0.00013165007037">
          1.9496188543e-05 2.3364293156e-05 5.1698509651e-07 1.9579669242e-05 2.3101918487e-05 1.4812969766e-06
          2.0241579477e-05 2.3752609195e-05 1.4187635315e-06 4.9555333135e-06 8.5538576968e-06 1.9486051315e-06
          1.2851462088e-05 1.6988147763e-05 1.7682681346e-06 4.072741649e-05 1.5487619748e-05 2.4707890134e-06
          1.3362891877e-05 1.5572108168e-05 2.5332012683e-06 4.9442137424e-06 7.686770914e-06 3.4448219139e-06
          4.1295967094e-05 1.5513442122e-05 4.2212100198e-06 3.1451425457e-05 8.1974958448e-06 5.5240225265e-06
          1.7200000002e-05 5.7000002016e-06 6.1699997786e-06 1.4945727571e-06 9.3156895673e-06 6.2992357925e-06
          3.2112217013e-05 9.1121773949e-06 6.7675564424e-06 2.027528808e-06 1.0833342458e-05 6.9199195423e-06
          1.4600000213e-05 8.9300001491e-06 7.4399999903e-06 2.5834011467e-05 1.6655209038e-05 6.613374353e-06
          4.6400000429e-05 1.1600000107e-05 7.9499995991e-06 2.537420005e-05 1.6939708075e-05 8.0804238678e-06
          1.3899272744e-05 3.8643644075e-05 1.6197709556e-06 1.4482788174e-05 4.0305272705e-05 2.2993369839e-06
          2.9405657187e-05 4.0633305616e-05 3.5223047234e-06 4.5865715947e-05 4.0937269659e-05 3.818402547e-06
          4.5158518333e-05 4.0803206502e-05 4.8613492254e-06 4.5681408665e-05 4.1510935262e-05 4.5417750698e-06
          3.1043218769e-05 4.8806137784e-05 4.8785818763e-06 3.9064412704e-05 3.905228732e-05 5.0176395234e-06
          2.9394090234e-05 3.9747352275e-05 5.0510716392e-06 3.9549886424e-05 3.7708112359e-05 5.7437514442e-06
          1.7500000467e-05 4.059999992e-05 5.6099997892e-06 4.5711778512e-05 4.1134735511e-05 5.5371615417e-06
          3.1720384868e-05 4.9743481213e-05 6.1529271989e-06 4.6527320592e-06 2.9519362215e-05 6.8962986006e-06
          4.594179245e-06 3.264262341e-05 6.6573238655e-06 5.8730952333e-06 3.3386055293e-05 7.1673798629e-06
          4.9142322496e-06 3.3586671634e-05 7.1300396485e-06 3.69240297e-05 3.9783823013e-05 7.226334219e-06
          6.0185561779e-06 2.922656131e-05 7.918083611e-06 4.5210545068e-06 3.2754713175e-05 7.2715142778e-06
          3.6681369238e-05 4.0455219278e-05 7.8639150161e-06 3.6177203583e-05 4.0528204408e-05 8.8032347776e-06
          3.7861562305e-05 4.0103452193e-05 8.6193758762e-06 5.162814432e-06 2.966991633e-05 9.2173759185e-06
          3.6979115976e-05 4.0285511204e-05 8.9303466666e-06 4.7833905228e-06 3.2765645301e-05 8.0687514128e-06
          3.5737601138e-05 6.9850633736e-05 2.1538344299e-06 3.6677301978e-05 6.9530178735e-05 2.2556607746e-06
          3.6502711737e-05 7.0494279498e-05 2.2578688004e-06 3.7423971662e-05 7.0430804044e-05 2.2154158614e-06
          3.5306176869e-05 7.2273112892e-05 1.9936178433e-06 3.7406809952e-06 5.7287314121e-05 3.1500471778e-06
          1.5952040485e-05 6.7344051786e-05 3.6858543808e-06 3.5254288377e-05 7.0702895755e-05 3.1996714824e-06
          4.0482909753e-06 7.3106552009e-05 4.2152350943e-06 4.0419531615e-06 5.6543125538e-05 4.8537576731e-06
          4.5897013479e-06 5.8046312915e-05 5.0261332945e-06 9.222708286e-06 6.7021828727e-05 5.1014867495e-06
          1.5456185793e-05 6.765085709e-05 5.2679010878e-06 3.9958863454e-06 7.3323913966e-05 5.1847364375e-06
          5.0616849876e-06 7.3238028563e-05 4.9961363402e-06 1.0057895452e-05 5.4713007557e-05 5.5651776165e-06
          2.3121086997e-05 6.5472246206e-05 5.8928376347e-06 5.878338925e-06 6.2757026171e-05 6.4237624429e-06
          4.9303794185e-06 7.0345595304e-05 6.258349913e-06 4.5415181376e-06 7.2965078289e-05 5.8824803091e-06
          7.3581481956e-06 6.2175517087e-05 6.6505149334e-06 2.3693271942e-05 6.3887993747e-05 6.7486398621e-06
          9.2741374829e-06 6.7057597334e-05 6.7186415436e-06 9.8325335784e-06 6.870454672e-05 6.5690401243e-06
          2.873860285e-05 7.3947790952e-05 6.8601402745e-06 7.3239266385e-06 6.3476072683e-05 7.897229807e-06
          5.3490575738e-06 7.0669440902e-05 7.8138637036e-06 4.8964293455e-06 7.3790200986e-05 5.6824146668e-06
          3.5335062421e-05 7.1946167736e-05 4.1456114559e-06 4.3095092224e-06 7.3454219091e-05 6.5771446316e-06
          9.297548786e-06 5.3511401347e-05 6.2214908212e-06 4.8870748287e-05 8.393596363e-05 7.1881976282e-07
          4.975126285e-05 8.4441497165e-05 8.6347102979e-07 3.8396392483e-05 8.4586383309e-05 1.4124453855e-06
          9.1298843472e-06 8.3833016106e-05 1.8389216621e-06 4.8842062824e-05 8.4160965343e-05 1.2938326108e-06
          4.9559141189e-05 8.5003208369e-05 1.6079363832e-06 5.2082464208e-06 7.788628136e-05 2.2034762424e-06
          3.93201517e-05 8.4585546574e-05 2.8483386814e-06 7.2267725955e-06 8.6358268163e-05 2.7906569358e-06
          5.9618091655e-06 8.0547164544e-05 3.5140785712e-06 4.3299998651e-05 7.6700001955e-05 3.8200000745e-06
          8.5983483586e-06 8.416188939e-05 3.5348114125e-06 6.9919883572e-06 8.6874613771e-05 3.5570838008e-06
          4.001439811e-05 9.1279973276e-05 3.884790658e-06 3.842274964e-05 9.1905429144e-05 3.6409012409e-06
          3.9124126488e-05 8.4643652372e-05 4.4500193326e-06 2.4984763513e-05 8.9333509095e-05 4.4703319872e-06
          6.7542264333e-06 8.7067892309e-05 4.6573431973e-06 8.4543626144e-06 8.6386651674e-05 4.4403495849e-06
          4.5599455916e-05 7.797521539e-05 5.3154190027e-06 4.6186709369e-05 7.9586818174e-05 5.5002274166e-06
          2.8862305044e-05 7.4522991781e-05 6.0421771195e-06 2.984992534e-05 7.4365016189e-05 6.1387386268e-06
          4.7319528676e-05 7.6673342846e-05 6.2539970713e-06 2.5434706913e-05 8.9681547252e-05 6.1420064412e-06
          1.1933425412e-05 7.6038086263e-05 6.9612906373e-06 4.770605301e-05 9.556360601e-05 6.6200182118e-06
          2.935050361e-05 7.4359559221e-05 7.5201164691e-06 1.2480921214e-05 7.4522191426e-05 7.7801669249e-06
          4.8044068535e-05 7.767626812e-05 7.6174947026e-06 4.7693694796e-05 9.4617040304e-05 8.2533770183e-06
          7.5775883488e-06 8.673065895e-05 4.5334136303e-06 5.1532465477e-06 7.9051780631e-05 3.2509592529e-06
          4.9104957725e-05 8.4171922936e-05 2.0927659534e-06 8.5054616648e-06 8.6877524154e-05 5.1209517551e-06
          6.3440318627e-05 1.4919000932e-05 2.31160152e-06 5.6400000176e-05 2.2800000806e-05 2.2599999738e-06
          5.0758299039e-05 1.3379923075e-05 2.5681442821e-06 6.3973973738e-05 1.3441423107e-05 3.1097774809e-06
          5.8764242567e-05 5.3865041991e-06 4.3669160732e-06 5.0725735491e-05 1.2973559024e-05 4.2168871914e-06
          5.1371320296e-05 1.3680012671e-05 4.0621398512e-06 8.0120895291e-05 1.8887323677e-05 4.230696959e-06
          9.3606169685e-05 8.0927147792e-06 4.8542983677e-06 9.297295037e-05 1.6022455384e-05 4.7324620027e-06
          8.7200380221e-05 3.3955916479e-06 5.9183498706e-06 5.4427135183e-05 1.6983873138e-05 5.5283117035e-06
          8.0421974417e-05 1.8143804482e-05 5.9331205193e-06 5.8243997046e-05 5.7083966567e-06 6.0267898334e-06
          7.165846182e-05 1.2401957065e-05 6.2562194216e-06 7.0178655733e-05 1.2983458873e-05 6.0294673858e-06
          9.3026472314e-05 1.6065216187e-05 6.3378020059e-06 9.3582319096e-05 1.7703936464e-05 6.1987907429e-06
          8.0969228293e-05 1.9645647626e-05 6.1053419813e-06 9.3554335763e-05 6.5239346441e-06 6.0594306888e-06
          5.5136431911e-05 1.7965694497e-05 6.8631247814e-06 8.761906065e-05 3.7194427023e-06 7.4738636613e-06
          9.3100003141e-05 2.3900000087e-05 7.4300000961e-06 5.0408860261e-05 1.3217560081e-05 3.371046887e-06
          9.3635026133e-05 7.7659215094e-06 7.0043961387e-06 5.3187664889e-05 4.8689351388e-05 1.3945081037e-06
          5.7233064581e-05 3.8487876736e-05 2.4781732009e-06 5.2690033044e-05 4.8533693189e-05 2.2100296064e-06
          5.3788757214e-05 4.9014168326e-05 2.9179893772e-06 5.3526058764e-05 4.8136691476e-05 3.1494992072e-06
          5.779037383e-05 3.8513186155e-05 4.1939929361e-06 7.2800001362e-05 4.9700000091e-05 5.4199999795e-06
          8.743070066e-05 4.9633144954e-05 5.6263747865e-06 8.8343404059e-05 2.5169319997e-05 7.7911699918e-06
          8.8838714873e-05 2.6579769838e-05 8.3680097305e-06 5.2680246881e-05 4.8346388212e-05 3.1091683468e-06
          7.3877868999e-05 7.3247691034e-05 8.6841862412e-07 5.2123617934e-05 5.3319199651e-05 1.8337710799e-06
          7.3971983511e-05 7.3448762123e-05 1.8008760208e-06 9.2458845756e-05 5.3527764976e-05 1.9879826141e-06
          5.2910723753e-05 5.3903131629e-05 3.2885366181e-06 9.3104747066e-05 5.4421838286e-05 3.2035011372e-06
          7.9438024841e-05 7.0135938586e-05 3.4967918054e-06 7.4399998994e-05 7.1700000262e-05 3.7800000428e-06
          5.2788051107e-05 5.2929364756e-05 4.6214663598e-06 7.6936899859e-05 5.5680466176e-05 5.2152340686e-06
          7.9152436228e-05 6.9909256126e-05 4.5028627937e-06 7.4983749073e-05 5.7489291066e-05 5.054583653e-06
          7.5926218415e-05 5.7620953157e-05 5.2454101933e-06 8.795139729e-05 5.1115875976e-05 6.2327762862e-06
          7.6528041973e-05 5.7427736465e-05 6.1543969423e-06 7.578729128e-05 5.786323527e-05 6.5530498432e-06
          7.9899997218e-05 6.6799999331e-05 7.1700001172e-06 7.9269462731e-05 7.0703725214e-05 4.1570883695e-06
          7.8949102317e-05 7.0428475738e-05 5.1690426517e-06 7.4806834164e-05 7.3858835094e-05 9.8348982647e-07
          7.6510870713e-05 5.6964152463e-05 4.3936729526e-06 7.5290321547e-05 5.7535962696e-05 5.9183325902e-06
          7.4496580055e-05 7.421112241e-05 1.7367693772e-06 7.4333620432e-05 8.6237538198e-05 1.4115870499e-06
          5.0700000429e-05 7.5800002378e-05 1.5699999949e-06 7.4880706961e-05 8.4722771135e-05 2.2298513613e-06
          9.7767515399e-05 8.7623644504e-05 2.1112941795e-06 9.7614960396e-05 8.8291824795e-05 2.7593855521e-06
          9.7120486316e-05 8.7558524683e-05 3.129113793e-06 9.747990407e-05 8.7661945145e-05 3.9750589167e-06
          8.2209917309e-05 8.9103479695e-05 3.779086228e-06 7.1800001024e-05 9.4000002719e-05 4.5400001909e-06
          8.3366256149e-05 8.8917484391e-05 5.0877024478e-06 7.0899273851e-05 8.9243643743e-05 5.3797707551e-06
          8.5433166532e-05 7.8031385783e-05 6.1043701862e-06 8.6456202553e-05 7.7559765487e-05 6.4003097577e-06
          8.6952073616e-05 7.830762479e-05 6.0117722569e-06 7.14827911e-05 9.0905268735e-05 6.0593370108e-06
          8.6702108092e-05 7.8779114119e-05 6.7893124651e-06 8.2641658082e-05 8.9271394245e-05 6.5083104346e-06
          7.532685413e-05 9.3983486295e-05 6.5077833824e-06 5.4501455452e-05 9.5202289231e-05 6.7793507696e-06
          5.322089055e-05 9.55728392e-05 6.6851125666e-06 6.4105792262e-05 8.9843975729e-05 7.403883501e-06
          5.369939754e-05 9.5887000498e-05 7.4442468758e-06 5.4575979448e-05 9.5717376098e-05 7.500398624e-06
          9.173554281e-05 8.3656566858e-05 8.5650408437e-06 9.199881606e-05 8.4861334471e-05 7.7180620792e-06
          9.288982983e-05 8.4576218796e-05 7.6155870374e-06 7.6036682003e-05 9.4966038887e-05 7.8435941759e-06
          9.3082308013e-05 8.4371553385e-05 8.546187928e-06 6.4093954279e-05 8.8936649263e-05 8.9695495262e-06
          9.3268201454e-05 8.4583443822e-05 9.5653895187e-06 9.133725689e-05 8.3348495536e-05 7.0853134275e-06
          8.5535939434e-05 7.7551267168e-05 6.777566341e-06 9.2659640359e-05 8.5054729425e-05 9.3119488156e-06
        </DataArray>
      </Points>
      <Cells>
        <DataArray type="Int64" Name="connectivity" format="ascii" RangeMin="0" RangeMax="201">
          0 1 2 3 4 5
          6 7 8 9 10 11
          12 13 14 15 16 17
          18 19 20 21 22 23
          24 25 26 27 28 29
          30 31 32 33 34 35
          36 37 38 39 40 41
          42 43 44 45 46 47
          48 49 50 51 52 53
          54 55 56 57 58 59
          60 61 62 63 64 65
          66 67 68 69 70 71
          72 73 74 75 76 77
          78 79 80 81 82 83
          84 85 86 87 88 89
          90 91 92 93 94 95
          96 97 98 99 100 101
          102 103 104 105 106 107
          108 109 110 111 112 113
          114 115 116 117 118 119
          120 121 122 123 124 125
          126 127 128 129 130 131
          132 133 134 135 136 137
          138 139 140 141 142 143
          144 145 146 147 148 149
          150 151 152 153 154 155
          156 157 158 159 160 161
          162 163 164 165 166 167
          168 169 170 171 172 173
          174 175 176 177 178 179
          180 181 182 183 184 185
          186 187 188 189 190 191
          192 193 194 195 196 197
          198 199 200 201
        </DataArray>
        <DataArray type="Int64" Name="offsets" format="ascii" RangeMin="1" RangeMax="202">
          1 2 3 4 5 6
          7 8 9 10 11 12
          13 14 15 16 17 18
          19 20 21 22 23 24
          25 26 27 28 29 30
          31 32 33 34 35 36
          37 38 39 40 41 42
          43 44 45 46 47 48
          49 50 51 52 53 54
          55 56 57 58 59 60
          61 62 63 64 65 66
          67 68 69 70 71 72
          73 74 75 76 77 78
          79 80 81 82 83 84
          85 86 87 88 89 90
          91 92 93 94 95 96
          97 98 99 100 101 102
          103 104 105 106 107 108
          109 110 111 112 113 114
          115 116 117 118 119 120
          121 122 123 124 125 126
          127 128 129 130 131 132
          133 134 135 136 137 138
          139 140 141 142 143 144
          145 146 147 148 149 150
          151 152 153 154 155 156
          157 158 159 160 161 162
          163 164 165 166 167 168
          169 170 171 172 173 174
          175 176 177 178 179 180
          181 182 183 184 185 186
          187 188 189 190 191 192
          193 194 195 196 197 198
          199 200 201 202
        </DataArray>
        <DataArray type="UInt8" Name="types" format="ascii" RangeMin="1" RangeMax="1">
          1 1 1 1 1 1
          1 1 1 1 1 1
          1 1 1 1 1 1
          1 1 1 1 1 1
          1 1 1 1 1 1
          1 1 1 1 1 1
          1 1 1 1 1 1
          1 1 1 1 1 1
          1 1 1 1 1 1
          1 1 1 1 1 1
          1 1 1 1 1 1
          1 1 1 1 1 1
          1 1 1 1 1 1
          1 1 1 1 1 1
          1 1 1 1 1 1
          1 1 1 1 1 1
          1 1 1 1 1 1
          1 1 1 1 1 1
          1 1 1 1 1 1
          1 1 1 1 1 1
          1 1 1 1 1 1
          1 1 1 1 1 1
          1 1 1 1 1 1
          1 1 1 1 1 1
          1 1 1 1 1 1
          1 1 1 1 1 1
          1 1 1 1 1 1
          1 1 1 1 1 1
          1 1 1 1 1 1
          1 1 1 1 1 1
          1 1 1 1 1 1
          1 1 1 1 1 1
          1 1 1 1 1 1
          1 1 1 1
        </DataArray>
      </Cells>
    </Piece>
  </UnstructuredGrid>
</VTKFile>
