<?xml version="1.0"?>
<VTKFile type="UnstructuredGrid" version="0.1" byte_order="LittleEndian" header_type="UInt32" compressor="vtkZLibDataCompressor">
  <UnstructuredGrid>
    <Piece NumberOfPoints="125" NumberOfCells="125">
      <PointData>
        <DataArray type="Int32" Name="id" format="ascii" RangeMin="1" RangeMax="125">
          75 50 19 59 97 42
          49 15 22 44 3 118
          123 93 40 1 117 78
          24 7 54 20 109 62
          106 84 61 119 124 77
          32 51 85 60 81 105
          18 92 82 67 14 26
          57 12 89 121 111 64
          34 37 90 46 101 86
          79 35 2 69 115 48
          72 39 13 30 113 99
          23 96 95 120 110 43
          56 73 33 6 38 116
          88 47 87 91 17 41
          58 102 10 107 11 66
          103 45 36 68 55 25
          80 5 74 4 108 9
          76 52 125 104 21 29
          65 28 8 94 83 114
          63 53 27 31 70 16
          100 112 71 98 122
        </DataArray>
        <DataArray type="Int32" Name="type" format="ascii" RangeMin="1" RangeMax="2">
          2 1 1 1 1 1
          1 1 1 1 1 1
          1 1 1 1 1 2
          1 1 1 1 2 2
          2 1 2 1 2 2
          1 1 1 1 1 2
          1 1 1 2 1 1
          1 1 1 2 2 2
          1 1 1 1 1 1
          2 1 1 2 1 1
          2 1 1 1 2 1
          1 1 1 1 1 1
          1 2 1 1 1 1
          1 1 1 1 1 1
          1 1 1 2 1 2
          1 1 1 2 1 1
          1 1 2 1 2 1
          2 1 2 1 1 1
          2 1 1 1 1 2
          2 1 1 1 2 1
          1 2 2 1 2
        </DataArray>
        <DataArray type="Float64" Name="diameter" format="ascii" RangeMin="8.0562431818e-07" RangeMax="1.9663100233e-06">
          1.0014695152e-06 1.9309871026e-06 1.5304279275e-06 1.5879246426e-06 1.7498477773e-06 1.6955008966e-06
          1.9427614268e-06 1.52779501e-06 1.6366293398e-06 1.7896953873e-06 1.7308238303e-06 1.6452569243e-06
          1.6076844192e-06 1.7807486614e-06 1.6536134207e-06 1.5577570092e-06 1.6363930819e-06 8.4676648859e-07
          1.8603412472e-06 1.7779210607e-06 1.6769691618e-06 1.6766355299e-06 9.4358764181e-07 8.7926352091e-07
          8.6377715362e-07 1.8476046582e-06 9.6280620536e-07 1.4893461612e-06 8.3812306814e-07 8.4171786086e-07
          1.7217314217e-06 1.6943776815e-06 1.8086449726e-06 1.9545357165e-06 1.8671559952e-06 8.8324642676e-07
          1.8014696794e-06 1.6751122316e-06 1.8484945419e-06 9.8453386526e-07 1.854530569e-06 1.7794895989e-06
          1.7165226401e-06 1.8721155477e-06 1.6470416056e-06 9.0295827488e-07 9.4111047024e-07 8.7695521748e-07
          1.6736110256e-06 1.6766354918e-06 1.8097826055e-06 1.6805745034e-06 1.6148779055e-06 1.8476046141e-06
          8.7951402401e-07 1.7779210445e-06 1.9663100233e-06 9.8014848418e-07 1.525322907e-06 1.6288516078e-06
          9.0053110198e-07 1.7854789153e-06 1.6818328856e-06 1.6670732975e-06 8.9133887597e-07 1.6026749419e-06
          1.7025386919e-06 1.5857156065e-06 1.7512276976e-06 1.5464032412e-06 1.5664562941e-06 1.7779210642e-06
          1.6640632357e-06 1.052261607e-06 1.6355744254e-06 1.6766354932e-06 1.7035120533e-06 1.5781761421e-06
          1.829138588e-06 1.7361563078e-06 1.8476046132e-06 1.7895058879e-06 1.8367926288e-06 1.6985485847e-06
          1.8721155583e-06 1.5419113224e-06 1.7543724497e-06 8.6306361958e-07 1.5613113814e-06 9.6203656829e-07
          1.7205207213e-06 1.6837265856e-06 1.8603412667e-06 8.0562431818e-07 1.7209909182e-06 1.8721155519e-06
          1.8964830295e-06 1.6955008917e-06 1.0206690426e-06 1.8014696935e-06 8.6243561863e-07 1.9545357298e-06
          9.6139064265e-07 1.7661467648e-06 8.6455082468e-07 1.5936202564e-06 1.6248550085e-06 1.6929198067e-06
          8.5515820436e-07 1.6943776704e-06 1.7779210452e-06 1.7807486684e-06 1.8671559862e-06 9.2735495856e-07
          8.6448470936e-07 1.6536134265e-06 1.7460208218e-06 1.6215248557e-06 1.0529917704e-06 1.8014696984e-06
          1.5506721689e-06 8.5234400555e-07 9.5009106879e-07 1.7033799546e-06 8.4642912495e-07
        </DataArray>
      </PointData>
      <CellData>
      </CellData>
      <Points>
        <DataArray type="Float32" Name="Points" NumberOfComponents="3" format="ascii" RangeMin="9.7749608529e-06" RangeMax="0.0001313767072">
          1.9700000848e-05 2.3399999918e-05 9.4000000672e-07 1.3099999705e-05 1.6300000425e-05 2.140000106e-06
          4.9550094445e-06 8.5137453425e-06 2.0178206341e-06 4.075212928e-05 1.5488742065e-05 2.5468686999e-06
          4.1271257942e-05 1.5512319806e-05 4.1451303332e-06 1.7200000002e-05 5.7000002016e-06 6.1699997786e-06
          3.1799998396e-05 8.6800000645e-06 6.1800001276e-06 2.0027994196e-06 1.0762923011e-05 6.891119483e-06
          1.4600000213e-05 8.9300001491e-06 7.4399999903e-06 2.5600000299e-05 1.6800000594e-05 7.3599999268e-06
          4.6400000429e-05 1.1600000107e-05 7.9499995991e-06 1.5193022591e-06 9.3861099231e-06 6.3280358518e-06
          4.9447376114e-06 7.7268823588e-06 3.3756064113e-06 1.3924001905e-05 3.8714064431e-05 1.6485711285e-06
          1.4458059013e-05 4.0234852349e-05 2.2705369247e-06 2.9405133319e-05 4.0593193262e-05 3.5915199987e-06
          2.9394614103e-05 3.978746463e-05 4.9818563639e-06 4.571826139e-05 4.1185059672e-05 4.3057957555e-06
          3.9300000935e-05 3.8400001358e-05 5.3700000535e-06 1.7500000467e-05 4.059999992e-05 5.6099997892e-06
          3.1074701837e-05 4.8849717132e-05 4.9378263611e-06 4.8594251894e-06 2.9488166547e-05 7.1577564995e-06
          4.6762065722e-06 3.2778447348e-05 7.1547756306e-06 5.3423477766e-06 3.3401494875e-05 7.1842746365e-06
          3.6817080399e-05 4.0157898184e-05 7.7708373283e-06 5.403996056e-06 2.9512897527e-05 8.8343522293e-06
          3.7201953091e-05 4.0246482968e-05 8.5896590463e-06 3.1688901799e-05 4.9699905503e-05 6.0936822592e-06
          4.5482946007e-05 4.1015809984e-05 5.0901803661e-06 3.6908815673e-05 7.038883632e-05 2.2336753318e-06
          3.5305653e-05 7.2233000537e-05 2.0628333459e-06 3.7592144508e-06 5.7288154494e-05 3.207106829e-06
          3.5294095142e-05 7.1347676567e-05 3.5905163713e-06 1.5699999494e-05 6.7499997385e-05 4.4899998102e-06
          4.3042286961e-06 5.7312907302e-05 4.8850679377e-06 4.1965217861e-06 7.3257768236e-05 4.8496453928e-06
          9.6699995993e-06 5.4100000852e-05 5.8999999055e-06 2.3145315936e-05 6.5405169153e-05 5.9290746321e-06
          9.2680948001e-06 6.7097244028e-05 5.9116910052e-06 4.5825768211e-06 7.3346629506e-05 5.6709873206e-06
          6.6154275373e-06 6.2495353632e-05 6.5639173954e-06 2.3669044822e-05 6.39550708e-05 6.7124033194e-06
          9.813986253e-06 6.8651730544e-05 6.5474396251e-06 5.1299998631e-06 7.0499998401e-05 7.000000096e-06
          7.3081860137e-06 6.3454281189e-05 7.8676075645e-06 3.6269662814e-05 6.9791036367e-05 2.2053716293e-06
          4.8955029342e-05 8.4077342763e-05 1.2147236248e-06 4.9623446102e-05 8.4702522145e-05 1.2443231299e-06
          9.1063575383e-06 8.3847568021e-05 1.913985443e-06 3.8539426896e-05 8.4588165919e-05 1.697756602e-06
          5.2747654991e-06 7.8716235294e-05 2.8194601782e-06 5.8073496803e-06 8.0232835899e-05 3.4397112358e-06
          8.6218751676e-06 8.4147337475e-05 3.4597476315e-06 3.9083995944e-05 8.4612896899e-05 3.3743519907e-06
          7.1072563514e-06 8.6621112132e-05 3.180804697e-06 4.3299998651e-05 7.6700001955e-05 3.8200000745e-06
          3.9200000174e-05 9.1599998996e-05 3.7600000269e-06 7.8320481407e-06 8.6787935288e-05 4.7228168114e-06
          2.5005148927e-05 8.9349283371e-05 4.5460674301e-06 4.5626686187e-05 7.8049946751e-05 5.3239887166e-06
          2.9323446142e-05 7.4388786743e-05 6.2285043896e-06 4.7351011744e-05 7.6716918556e-05 6.3132415562e-06
          2.5414321499e-05 8.9665780251e-05 6.0662709984e-06 4.7705398174e-05 9.5513467386e-05 6.7065375333e-06
          2.9077755244e-05 7.421207556e-05 7.0474866334e-06 1.1957652532e-05 7.597100921e-05 6.9975271799e-06
          1.2456693185e-05 7.4589268479e-05 7.7439299275e-06 4.8012585466e-05 7.7632685134e-05 7.5582502177e-06
          4.7694349632e-05 9.4667178928e-05 8.1668576968e-06 4.6159479098e-05 7.9512086813e-05 5.4916577028e-06
          6.3464547566e-05 1.4851919332e-05 2.34783829e-06 5.6400000176e-05 2.2800000806e-05 2.2599999738e-06
          6.3949744799e-05 1.3508503798e-05 3.0735404835e-06 5.0800001191e-05 1.3300000319e-05 3.5800001115e-06
          5.8740715758e-05 5.4010611166e-06 4.4419798542e-06 8.0139427155e-05 1.8888165869e-05 4.2877568376e-06
          9.3605514849e-05 8.0425752458e-06 4.9408176892e-06 5.8267523855e-05 5.6938397393e-06 5.9517260524e-06
          9.3018323241e-05 1.6097897969e-05 5.541959581e-06 5.4458614613e-05 1.7027450667e-05 5.5875561884e-06
          8.0683996202e-05 1.8912898668e-05 5.9643521126e-06 9.3594229838e-05 7.1781178121e-06 6.4324976847e-06
          7.0900001447e-05 1.2700000298e-05 6.1400000959e-06 9.356377268e-05 1.7651120288e-05 6.1771906985e-06
          8.7400003395e-05 3.549999974e-06 6.6600000537e-06 5.5104948842e-05 1.7922116967e-05 6.8038798418e-06
          9.3100003141e-05 2.3900000087e-05 7.4300000961e-06 5.3017225582e-05 4.8557933042e-05 2.0611450964e-06
          5.7257777371e-05 3.8489000872e-05 2.55425266e-06 5.3401792684e-05 4.8646445066e-05 2.8793158435e-06
          5.7765664678e-05 3.8512065657e-05 4.1179132495e-06 7.2800001362e-05 4.9700000091e-05 5.4199999795e-06
          8.859999798e-05 2.5900000765e-05 8.0899999375e-06 7.4591836892e-05 7.3972958489e-05 1.3529235048e-06
          5.2232768212e-05 5.3387862863e-05 2.0572563244e-06 9.2800000857e-05 5.4000000091e-05 2.6299999263e-06
          5.2790703194e-05 5.3413201385e-05 3.7750032789e-06 7.4399998994e-05 7.1700000262e-05 3.7800000428e-06
          7.9199999163e-05 7.0299996878e-05 4.3400000322e-06 7.6600001194e-05 5.6500000937e-05 4.8699998842e-06
          7.5617295806e-05 5.7457946241e-05 5.2612881518e-06 8.7699998403e-05 5.0400001783e-05 5.9399999373e-06
          7.6001713751e-05 5.7546429161e-05 6.0791562646e-06 7.9899997218e-05 6.6799999331e-05 7.1700001172e-06
          7.3986811913e-05 7.3407070886e-05 1.3261310414e-06 7.4357849371e-05 8.6170461145e-05 1.4478238199e-06
          5.0700000429e-05 7.5800002378e-05 1.5699999949e-06 7.4856485298e-05 8.4789855464e-05 2.1936145913e-06
          9.761806723e-05 8.7884916866e-05 2.6064408303e-06 8.2339211076e-05 8.9088156528e-05 3.977106644e-06
          7.1800001024e-05 9.4000002719e-05 4.5400001909e-06 7.0924004831e-05 8.9314067736e-05 5.4085712691e-06
          8.2884231233e-05 8.9112909336e-05 5.6550679801e-06 8.6070067482e-05 7.7791410149e-05 6.4053892856e-06
          8.6708438175e-05 7.8388482507e-05 6.4336586547e-06 7.145806012e-05 9.0834852017e-05 6.0305369516e-06
          7.5358337199e-05 9.4027062005e-05 6.5670278673e-06 6.4105275669e-05 8.9803870651e-05 7.473099231e-06
          5.4000000091e-05 9.560000035e-05 7.1099998422e-06 9.1599998996e-05 8.3600003563e-05 7.7900003816e-06
          7.6005198935e-05 9.4922463177e-05 7.7843496911e-06 9.2524853244e-05 8.4559687821e-05 7.9973697211e-06
          9.2894260888e-05 8.4644714661e-05 8.7832968347e-06 6.4094478148e-05 8.8976754341e-05 8.9003333414e-06
          9.738314111e-05 8.7715947302e-05 3.3895416891e-06
        </DataArray>
      </Points>
      <Cells>
        <DataArray type="Int64" Name="connectivity" format="ascii" RangeMin="0" RangeMax="124">
          0 1 2 3 4 5
          6 7 8 9 10 11
          12 13 14 15 16 17
          18 19 20 21 22 23
          24 25 26 27 28 29
          30 31 32 33 34 35
          36 37 38 39 40 41
          42 43 44 45 46 47
          48 49 50 51 52 53
          54 55 56 57 58 59
          60 61 62 63 64 65
          66 67 68 69 70 71
          72 73 74 75 76 77
          78 79 80 81 82 83
          84 85 86 87 88 89
          90 91 92 93 94 95
          96 97 98 99 100 101
          102 103 104 105 106 107
          108 109 110 111 112 113
          114 115 116 117 118 119
          120 121 122 123 124
        </DataArray>
        <DataArray type="Int64" Name="offsets" format="ascii" RangeMin="1" RangeMax="125">
          1 2 3 4 5 6
          7 8 9 10 11 12
          13 14 15 16 17 18
          19 20 21 22 23 24
          25 26 27 28 29 30
          31 32 33 34 35 36
          37 38 39 40 41 42
          43 44 45 46 47 48
          49 50 51 52 53 54
          55 56 57 58 59 60
          61 62 63 64 65 66
          67 68 69 70 71 72
          73 74 75 76 77 78
          79 80 81 82 83 84
          85 86 87 88 89 90
          91 92 93 94 95 96
          97 98 99 100 101 102
          103 104 105 106 107 108
          109 110 111 112 113 114
          115 116 117 118 119 120
          121 122 123 124 125
        </DataArray>
        <DataArray type="UInt8" Name="types" format="ascii" RangeMin="1" RangeMax="1">
          1 1 1 1 1 1
          1 1 1 1 1 1
          1 1 1 1 1 1
          1 1 1 1 1 1
          1 1 1 1 1 1
          1 1 1 1 1 1
          1 1 1 1 1 1
          1 1 1 1 1 1
          1 1 1 1 1 1
          1 1 1 1 1 1
          1 1 1 1 1 1
          1 1 1 1 1 1
          1 1 1 1 1 1
          1 1 1 1 1 1
          1 1 1 1 1 1
          1 1 1 1 1 1
          1 1 1 1 1 1
          1 1 1 1 1 1
          1 1 1 1 1 1
          1 1 1 1 1 1
          1 1 1 1 1
        </DataArray>
      </Cells>
    </Piece>
  </UnstructuredGrid>
</VTKFile>
