<?xml version="1.0"?>
<VTKFile type="UnstructuredGrid" version="0.1" byte_order="LittleEndian" header_type="UInt32" compressor="vtkZLibDataCompressor">
  <UnstructuredGrid>
    <Piece NumberOfPoints="494" NumberOfCells="494">
      <PointData>
        <DataArray type="Int32" Name="id" format="ascii" RangeMin="1" RangeMax="494">
          298 133 206 385 308 75
          19 134 244 59 343 174
          406 50 123 241 49 97
          42 324 118 131 15 44
          22 3 264 196 457 459
          474 477 484 485 203 276
          40 93 1 245 369 386
          408 78 266 407 150 256
          370 175 54 362 117 124
          109 24 7 257 215 176
          387 363 286 207 62 119
          388 246 372 225 389 267
          371 154 373 329 106 258
          84 20 141 309 220 198
          310 208 374 161 344 299
          61 277 166 188 137 390
          311 430 432 433 434 435
          436 461 462 460 475 478
          32 313 312 121 209 411
          77 51 391 268 177 226
          148 314 330 409 275 410
          85 235 105 325 60 315
          392 186 81 67 300 227
          259 151 92 167 129 345
          221 375 18 57 135 412
          155 287 192 160 216 364
          145 346 14 82 269 288
          228 393 26 283 348 158
          89 12 437 438 442 458
          463 464 479 480 210 376
          316 37 317 111 222 413
          247 34 270 366 142 365
          229 90 350 156 79 367
          168 349 331 187 199 351
          217 101 236 278 332 157
          2 126 35 46 394 69
          271 115 86 415 289 200
          136 182 414 72 48 416
          237 149 352 39 120 333
          13 384 301 181 353 189
          211 99 204 341 23 113
          30 347 354 230 96 95
          304 242 439 440 441 465
          481 482 483 127 43 279
          110 418 56 417 218 190
          73 405 38 355 280 395
          6 33 223 159 318 248
          377 179 47 368 146 305
          41 87 116 91 17 173
          88 265 169 102 306 197
          243 58 466 476 107 238
          357 396 356 11 162 419
          66 420 290 249 334 191
          212 103 138 272 319 45
          284 130 10 152 36 467
          486 487 488 489 250 285
          397 185 398 25 335 163
          55 239 74 80 147 378
          260 5 291 326 193 108
          320 273 183 140 423 261
          424 132 422 4 379 164
          184 342 336 293 231 292
          9 302 213 76 52 195
          294 139 224 443 444 445
          446 447 448 468 469 470
          490 491 492 281 64 125
          456 321 429 104 251 21
          29 65 282 399 380 421
          327 122 262 170 381 232
          358 400 328 295 178 28
          219 8 337 94 83 205
          401 382 338 63 255 253
          233 425 114 234 53 383
          403 201 144 263 426 402
          165 153 252 70 171 359
          296 322 194 240 172 274
          404 31 27 360 303 427
          361 100 128 214 112 428
          71 98 254 180 16 339
          323 340 143 307 297 202
          431 449 450 451 452 453
          454 455 68 471 472 473
          493 494
        </DataArray>
        <DataArray type="Int32" Name="type" format="ascii" RangeMin="1" RangeMax="2">
          2 2 2 2 2 2
          1 1 2 1 2 2
          2 1 1 1 1 1
          1 1 1 1 1 1
          1 1 1 1 1 2
          1 2 2 2 1 2
          1 1 1 2 2 2
          2 2 2 2 1 2
          2 2 1 1 1 2
          2 1 1 2 1 2
          2 1 2 2 2 1
          2 2 2 2 2 2
          2 2 2 2 2 2
          1 1 2 2 2 2
          2 2 2 2 2 2
          2 2 1 2 2 2
          2 1 2 2 2 2
          2 2 2 2 1 2
          1 2 2 2 2 2
          2 1 2 2 2 2
          2 2 2 2 1 2
          1 2 2 1 1 2
          2 1 1 2 2 2
          2 1 1 1 1 2
          2 2 1 1 2 2
          2 2 1 1 1 1
          1 2 1 1 2 2
          2 2 1 1 2 2
          1 1 2 2 2 1
          2 2 2 2 2 2
          2 1 2 2 2 2
          2 1 2 1 2 1
          2 1 2 2 2 1
          1 2 2 1 2 2
          1 1 2 2 2 2
          1 1 1 1 2 2
          2 1 1 2 2 2
          2 2 2 2 1 2
          2 2 2 1 1 2
          1 1 2 2 2 2
          2 1 1 1 1 2
          1 2 2 2 1 1
          1 1 2 2 2 2
          2 2 2 2 1 2
          1 2 1 2 1 2
          2 1 1 2 2 2
          1 1 2 2 2 2
          2 1 1 1 1 1
          1 1 1 1 1 1
          1 1 1 1 1 1
          1 1 2 1 2 2
          2 2 2 1 2 2
          2 2 2 2 2 2
          2 1 2 2 2 1
          1 1 1 1 1 2
          2 2 2 2 2 1
          2 2 2 1 2 2
          1 2 2 1 1 2
          2 1 2 1 1 2
          2 2 2 1 2 2
          2 2 2 1 2 2
          2 1 2 2 2 2
          1 2 2 2 1 2
          2 2 1 2 2 2
          2 2 2 2 2 2
          2 2 2 2 2 2
          2 2 2 1 2 1
          1 2 2 2 2 2
          1 2 2 2 2 2
          2 2 1 2 2 1
          1 1 2 1 1 1
          2 2 2 2 1 2
          2 2 2 2 1 2
          2 2 2 2 2 2
          2 1 2 2 2 2
          2 2 1 2 2 2
          2 1 1 2 2 2
          2 1 2 2 2 2
          2 1 2 2 1 2
          2 2 2 1 2 2
          1 2 2 2 2 2
          2 2 2 2 2 2
          2 2
        </DataArray>
        <DataArray type="Float64" Name="diameter" format="ascii" RangeMin="8.0071629857e-07" RangeMax="1.9644850376e-06">
          1.0353912198e-06 9.2383859466e-07 8.6533075242e-07 9.4636969409e-07 1.0228217057e-06 9.3903349337e-07
          1.8457806583e-06 1.7909490962e-06 1.0136501011e-06 1.9151248816e-06 9.7261954818e-07 9.4801137496e-07
          8.8927463789e-07 1.9025443396e-06 1.938956265e-06 1.5895174465e-06 1.9630317325e-06 1.7526143031e-06
          1.6636576999e-06 1.5802230698e-06 1.6045973449e-06 1.7434034423e-06 1.8426052552e-06 1.7432219306e-06
          1.5227627932e-06 1.6987018748e-06 1.612717871e-06 1.6820459135e-06 1.5440732199e-06 8.0905570891e-07
          1.608222476e-06 8.6033556029e-07 8.2970987186e-07 8.6635782755e-07 1.617587028e-06 9.439286988e-07
          1.5385651883e-06 1.7835640135e-06 1.8787410762e-06 9.87547097e-07 9.5205371537e-07 9.7110344745e-07
          8.6504583863e-07 9.2697187139e-07 9.608899442e-07 9.2232472883e-07 1.7254266053e-06 8.8527209953e-07
          1.0324793616e-06 9.2975519421e-07 1.6454739956e-06 1.5629513023e-06 1.5975915488e-06 9.8097402906e-07
          1.0639409378e-06 1.83293909e-06 1.7449250073e-06 8.6099273997e-07 1.6566012991e-06 9.2379878784e-07
          9.2608036407e-07 1.5735220462e-06 9.4972725542e-07 1.0343824384e-06 9.1057680966e-07 1.7962338278e-06
          9.3077492145e-07 1.0119760548e-06 1.0363572961e-06 9.8786958789e-07 9.1870974275e-07 8.8222872875e-07
          9.2510804903e-07 9.7834007812e-07 9.1547522264e-07 1.0657953503e-06 9.9528048444e-07 9.4704684689e-07
          1.7996274453e-06 1.6352004967e-06 9.1440794458e-07 1.0452724876e-06 1.0602335117e-06 1.0568744864e-06
          1.0662765586e-06 1.0245168947e-06 9.742832975e-07 9.5382273967e-07 9.3759724399e-07 1.021757763e-06
          1.0407531697e-06 9.4989904277e-07 1.736471964e-06 9.2672775392e-07 8.2330495308e-07 9.3121210664e-07
          1.0633135917e-06 1.624911726e-06 9.5036787644e-07 8.5226425045e-07 9.4194973735e-07 8.594880096e-07
          8.8662075437e-07 8.5971509402e-07 8.2938548131e-07 8.3733554097e-07 1.5339806789e-06 8.8621530517e-07
          1.6737090141e-06 1.0629159557e-06 1.0346702136e-06 1.0482867605e-06 1.0462035712e-06 9.4470786147e-07
          9.5856365508e-07 1.6061773366e-06 9.2413350997e-07 9.2488494095e-07 8.5292602732e-07 9.6847798937e-07
          9.8994902645e-07 8.6892226836e-07 9.7075222145e-07 9.7023989199e-07 1.6217142476e-06 8.7599338865e-07
          1.6828106089e-06 1.0543295378e-06 1.0257401302e-06 1.6373970577e-06 1.9037817554e-06 9.0106503955e-07
          9.9743038821e-07 1.7772524144e-06 1.8325038257e-06 1.0266758347e-06 1.0322145137e-06 8.9248051033e-07
          9.2467584967e-07 1.7397470995e-06 1.607205544e-06 1.7348116546e-06 1.8369711103e-06 9.9854778583e-07
          1.013500542e-06 9.1080676602e-07 1.7587539054e-06 1.6076495528e-06 9.3704523246e-07 9.452653259e-07
          8.8133350396e-07 1.0424545822e-06 1.6887260875e-06 1.7284402035e-06 1.6129798144e-06 1.5997685513e-06
          1.7005823889e-06 1.0170803554e-06 1.8197005496e-06 1.8028122932e-06 9.0233367598e-07 9.0212158617e-07
          9.7820394824e-07 9.010135185e-07 1.785141288e-06 1.6771517921e-06 1.0303538556e-06 9.9282716081e-07
          1.5648320452e-06 1.8750753523e-06 8.7275886569e-07 8.9146674426e-07 9.3234022939e-07 1.5882443252e-06
          8.3755996312e-07 8.6387218416e-07 8.6192209652e-07 8.1218672671e-07 1.0619451892e-06 1.007757475e-06
          1.0469600114e-06 1.6086669945e-06 8.7042079328e-07 1.0376887949e-06 9.6197427786e-07 8.9630140435e-07
          9.5716907938e-07 1.5900753114e-06 9.5512698606e-07 1.6138652638e-06 9.4210486954e-07 1.6012232432e-06
          1.0131075092e-06 1.6838690709e-06 1.0629890736e-06 1.013671507e-06 1.0542027767e-06 1.5264804784e-06
          1.7339764472e-06 9.7725850735e-07 1.0347860995e-06 1.778370264e-06 9.5059079351e-07 9.4283452415e-07
          1.6115579862e-06 1.9476320057e-06 8.6474484242e-07 9.7053812802e-07 1.0589513041e-06 9.888892522e-07
          1.9293807053e-06 1.8326197195e-06 1.7835677145e-06 1.6833226486e-06 9.1627976321e-07 8.7008995361e-07
          9.3949612161e-07 1.8396237564e-06 1.8019443606e-06 9.2087036425e-07 9.4445866097e-07 8.9469376257e-07
          9.4949092721e-07 1.0583735301e-06 8.830406726e-07 9.3210692745e-07 1.9644850376e-06 9.2517720697e-07
          1.0076908212e-06 1.0545621714e-06 1.0607835889e-06 1.7431422706e-06 1.8650477702e-06 9.5040623424e-07
          1.5942855919e-06 1.6641903023e-06 1.0312157968e-06 9.3271288134e-07 9.5382617719e-07 8.7275899892e-07
          9.2984954304e-07 1.9329145833e-06 1.6737360632e-06 1.6252741824e-06 1.5945525829e-06 9.6231821474e-07
          1.5209850491e-06 1.0146989847e-06 1.0183985022e-06 9.9701149755e-07 1.912460676e-06 1.7023826381e-06
          1.6634886142e-06 1.6494971183e-06 8.5958614104e-07 9.5446772865e-07 8.4757068132e-07 8.4388067559e-07
          8.4381836124e-07 8.4494182644e-07 8.0071629857e-07 9.7657731949e-07 1.7357636605e-06 8.416276209e-07
          1.8892328763e-06 9.1622567602e-07 1.5810041159e-06 8.7089453531e-07 1.666651237e-06 9.2154537162e-07
          1.008009434e-06 1.6046583497e-06 1.5954641997e-06 1.0083302802e-06 8.9679407116e-07 8.8278001383e-07
          1.6086670205e-06 1.6382490112e-06 8.4757989169e-07 1.0101314353e-06 1.0361124235e-06 1.0060424899e-06
          9.4767400576e-07 1.7166461111e-06 1.6877315886e-06 1.6012232709e-06 1.7005824402e-06 1.6644396346e-06
          1.6101311302e-06 1.8133152791e-06 1.9033676684e-06 1.6650031108e-06 1.8022958161e-06 1.7119083014e-06
          1.7839346857e-06 1.6353012065e-06 1.7215298649e-06 1.859630306e-06 1.6414277171e-06 1.7584455289e-06
          1.5902129176e-06 1.875075408e-06 9.0650540369e-07 1.4856065416e-06 1.0528922663e-06 9.0738145903e-07
          9.8738399922e-07 9.7731524133e-07 9.3892270193e-07 1.8830278304e-06 9.9355678152e-07 8.9459001582e-07
          9.0984006239e-07 9.3349567187e-07 8.8313077488e-07 9.669229004e-07 9.5180498342e-07 9.132499125e-07
          8.8688445221e-07 1.6054441338e-06 8.6892725072e-07 8.8179210899e-07 1.022023312e-06 1.7012941915e-06
          1.6864874821e-06 1.9375821145e-06 1.7599443808e-06 1.8442047058e-06 1.7125390824e-06 8.9080388658e-07
          8.0924973539e-07 8.4019775705e-07 8.3259988129e-07 8.5923275529e-07 9.3619390229e-07 1.5633045978e-06
          9.561712404e-07 8.2957027301e-07 9.8411800938e-07 1.8916487352e-06 1.0639508571e-06 9.9376899835e-07
          1.7237117866e-06 9.7065442215e-07 9.3817523277e-07 1.7696372391e-06 1.6800069302e-06 9.582796045e-07
          9.7212058542e-07 1.6640344763e-06 1.0361024985e-06 1.579805242e-06 1.6708245046e-06 1.0017381078e-06
          9.0579237267e-07 9.7315087108e-07 9.4131724248e-07 1.8589691064e-06 9.7194331266e-07 8.9001581082e-07
          8.7034511644e-07 8.8305107758e-07 9.0749460535e-07 1.7749346953e-06 9.9220434613e-07 9.5430642149e-07
          9.233179193e-07 1.5109496529e-06 9.7637856229e-07 1.0659264699e-06 8.6963486873e-07 8.9703482719e-07
          1.7992498723e-06 8.2072984117e-07 1.060393727e-06 8.9705547904e-07 1.7202847997e-06 9.2301391687e-07
          8.7893559563e-07 8.8354298919e-07 1.6599137209e-06 9.4409182631e-07 8.4858438738e-07 9.0935381759e-07
          9.2497152572e-07 8.7147717787e-07 8.7813861989e-07 8.4241143503e-07 8.6166587882e-07 8.7642503057e-07
          8.0750426132e-07 9.059422279e-07 8.0502869551e-07 8.8715473222e-07 8.8127836673e-07 9.1952437251e-07
          9.2119816165e-07 1.0015877521e-06 9.1046345174e-07 1.9219940747e-06 9.6222390283e-07 1.9596649389e-06
          1.6527778964e-06 9.0796634819e-07 8.9986320875e-07 9.328025736e-07 1.002621179e-06 8.6149525403e-07
          1.5869696928e-06 1.0263261882e-06 9.0591662139e-07 9.6565900834e-07 9.2103976863e-07 1.0209278463e-06
          9.5012852562e-07 9.3778130543e-07 1.5358319143e-06 9.1546832087e-07 1.0456520655e-06 1.6997590187e-06
          1.6570394111e-06 1.7445298737e-06 1.0216198297e-06 1.7477001037e-06 1.8186710424e-06 1.659235925e-06
          8.8061150052e-07 9.9200268603e-07 1.0406394937e-06 1.0001651751e-06 1.6386401103e-06 1.0141485321e-06
          9.8391178445e-07 8.7157530968e-07 9.927702874e-07 9.2898242156e-07 1.6074909777e-06 9.2209108767e-07
          9.4133449034e-07 9.5895860414e-07 9.793708501e-07 9.5116344812e-07 8.9083368501e-07 9.6808678809e-07
          8.9936457088e-07 1.7548472517e-06 1.0160699825e-06 9.7410847441e-07 9.6416205992e-07 9.9403482866e-07
          1.025345702e-06 8.9759261417e-07 1.6364095464e-06 9.2340537354e-07 9.4566146323e-07 9.4621588796e-07
          9.4799815443e-07 1.9556486235e-06 1.7028710469e-06 9.8927207281e-07 9.3025041557e-07 9.5541362021e-07
          9.418522757e-07 1.8701963694e-06 8.9963901384e-07 8.2411419794e-07 1.0467984063e-06 9.050633355e-07
          1.0466776873e-06 1.584869322e-06 9.973008912e-07 1.0205522775e-06 1.8043178815e-06 9.8764074624e-07
          9.8605747859e-07 9.9120816532e-07 8.5270613382e-07 1.6738145143e-06 8.4525607633e-07 1.0418616268e-06
          1.5575533154e-06 9.1380134509e-07 8.93591459e-07 9.2337550404e-07 8.5853450528e-07 8.5355255001e-07
          8.2799211802e-07 8.7888053116e-07 8.9053899085e-07 8.9475018e-07 8.447002097e-07 8.7140652717e-07
          9.0278051492e-07 8.6715802942e-07
        </DataArray>
      </PointData>
      <CellData>
      </CellData>
      <Points>
        <DataArray type="Float32" Name="Points" NumberOfComponents="3" format="ascii" RangeMin="9.7601194904e-06" RangeMax="0.00013248698728">
          2.0062712792e-05 2.3302498448e-05 5.0522078254e-07 1.8993929189e-05 2.3606558898e-05 4.5621411005e-07
          1.8527862267e-05 2.2874020942e-05 1.141601615e-06 2.0158033294e-05 2.2708856704e-05 1.3866757627e-06
          1.8525703126e-05 2.3460446755e-05 1.4643112536e-06 2.0762796339e-05 2.3786062229e-05 9.6093503998e-07
          4.9560567277e-06 8.5939691417e-06 1.8793897425e-06 1.2827234968e-05 1.7055228454e-05 1.7320313646e-06
          1.9224526113e-05 2.2752949008e-05 1.6500350739e-06 4.0632967284e-05 1.5516709027e-05 2.2091837764e-06
          1.9148714273e-05 2.3373324439e-05 2.3992386105e-06 2.0555860829e-05 2.2945190722e-05 2.201195457e-06
          2.0747022063e-05 2.3834627427e-05 2.2418869321e-06 1.3387119907e-05 1.5505027477e-05 2.5694380383e-06
          4.9436903282e-06 7.6466594692e-06 3.5140371892e-06 4.1291252273e-05 1.5002923647e-05 3.7605470879e-06
          3.1419942388e-05 8.1539183157e-06 5.4647780416e-06 4.1564482672e-05 1.5726389393e-05 5.2234076975e-06
          1.7959662728e-05 5.4014844864e-06 6.2864037318e-06 1.6477510144e-05 5.983907613e-06 6.0592924456e-06
          1.4970189568e-06 9.2682039394e-06 7.0682435762e-06 3.2143700082e-05 9.155754924e-06 6.826801382e-06
          2.0522584236e-06 1.0903762814e-05 6.9487200562e-06 2.5857538276e-05 1.6640653485e-05 6.5383105721e-06
          1.456067821e-05 8.3247623479e-06 6.9795050877e-06 4.6113411372e-05 1.0813513654e-05 7.859811376e-06
          4.6672772442e-05 1.2348567907e-05 8.0358404375e-06 2.5350673241e-05 1.6954265448e-05 8.155487194e-06
          1.4436924403e-06 9.2231994131e-06 5.5027198869e-06 1.9425786377e-05 2.3638463972e-05 1.1633409258e-06
          1.4641528651e-05 9.569204849e-06 7.9263390944e-06 1.8830465706e-05 2.2548281777e-05 4.2302372094e-07
          4.98590598e-05 1.4014537555e-05 3.5008010855e-06 4.9741429393e-05 1.2498329852e-05 4.0691938921e-06
          1.3710221538e-05 3.8497411879e-05 9.1739144636e-07 1.9864104615e-05 2.4052438675e-05 2.124739467e-06
          1.4497618395e-05 3.9879840187e-05 1.7617771846e-06 1.4058216038e-05 3.850504072e-05 2.6022632937e-06
          2.9406179237e-05 4.0673414333e-05 3.4530892208e-06 4.5539738494e-05 4.1028757551e-05 3.1234192193e-06
          4.5043096179e-05 4.0441795136e-05 3.6964793253e-06 4.6395452955e-05 4.1210700147e-05 3.5161108372e-06
          4.5473294449e-05 4.1926788981e-05 3.8306216084e-06 4.651927884e-05 4.0754312067e-05 4.3096442823e-06
          4.5320844947e-05 4.1182502173e-05 4.294901828e-06 4.6327098971e-05 4.2021863919e-05 3.9556612137e-06
          3.9040187403e-05 3.9119368012e-05 4.9814029808e-06 4.4724591135e-05 4.0003964386e-05 4.4268058446e-06
          4.4636257371e-05 4.1133436753e-05 5.0039111557e-06 4.6413813834e-05 4.2066418246e-05 4.8520555538e-06
          3.1778246921e-05 4.8475343647e-05 4.9503951232e-06 3.0298091588e-05 4.905698006e-05 4.7235894272e-06
          2.9781451303e-05 4.0320232074e-05 4.7854746299e-06 4.5637953008e-05 4.1900846554e-05 5.3537969507e-06
          4.673024705e-06 3.2675139664e-05 5.6611529544e-06 3.9574115362e-05 3.7641031668e-05 5.7799884416e-06
          1.7205829863e-05 3.9792710595e-05 5.5174255067e-06 4.5564436732e-05 4.0306545998e-05 5.6200847212e-06
          1.778031401e-05 4.1369265091e-05 5.698213954e-06 4.4864187657e-05 4.1159670218e-05 5.9343424255e-06
          4.6246805141e-05 4.1335792048e-05 5.8063292272e-06 4.6014879445e-06 2.9499966331e-05 6.021966783e-06
          4.607919891e-06 3.1693674828e-05 5.6756516642e-06 4.5342085286e-06 3.3261385397e-05 6.4997489062e-06
          5.1676461226e-06 3.3959677239e-05 6.3258257796e-06 3.1743995351e-05 4.9776164815e-05 6.1973605625e-06
          5.6013432186e-06 3.3115953556e-05 6.6065776991e-06 6.7162795858e-06 3.3557389543e-05 6.8507192736e-06
          4.4876419452e-06 3.4304634028e-05 6.8994932008e-06 3.6505476601e-05 3.9429873141e-05 6.8891804403e-06
          3.6191115214e-05 4.0286497097e-05 6.7323030635e-06 4.2175347517e-06 3.2065283449e-05 7.5547104643e-06
          4.805152912e-06 3.2632618968e-05 7.1765098255e-06 5.9516933106e-06 3.2785970689e-05 7.3964142757e-06
          6.1895175349e-06 3.4154054447e-05 7.3708997661e-06 3.7558827898e-05 3.8891172153e-05 7.4726149251e-06
          3.7353307562e-05 3.9834321797e-05 7.1213839874e-06 3.7482459447e-05 4.0718503442e-05 7.5156017374e-06
          6.230791314e-06 2.9158083635e-05 7.8947168731e-06 4.4614466788e-06 2.9510038075e-05 7.6125957094e-06
          3.9168558033e-06 3.2889227441e-05 7.5653028944e-06 4.6375439524e-06 3.351696796e-05 7.5252000897e-06
          5.4933370848e-06 3.3874875953e-05 7.9833425843e-06 5.1121751312e-06 3.2403753721e-05 8.0741347119e-06
          3.7635578337e-05 3.972795821e-05 8.0847757999e-06 3.865069084e-05 3.9737667976e-05 8.0121217252e-06
          3.6761772208e-05 4.0214643377e-05 8.004947631e-06 3.6994435504e-05 4.1056100599e-05 8.392298696e-06
          4.8939309636e-06 3.3008938772e-05 8.7954740593e-06 3.7109912228e-05 3.9545542677e-05 8.945551599e-06
          3.8240879803e-05 3.9772312448e-05 8.9220229711e-06 3.6070807255e-05 4.0888888179e-05 8.5149868028e-06
          5.1261990848e-06 2.9758513847e-05 9.1386864369e-06 3.7291596527e-05 4.0264894778e-05 9.5428276836e-06
          3.4726723243e-05 4.0731010813e-05 9.1536203399e-06 3.5910721635e-05 4.0763949073e-05 9.5326331575e-06
          3.8166232116e-05 4.0676211938e-05 9.4646966318e-06 1.4547465071e-05 4.1055460315e-05 2.7992189189e-06
          4.5685450459e-05 4.0835133404e-05 6.32962292e-06 4.3896911848e-06 3.1709092582e-05 6.5248555075e-06
          3.6309786537e-06 3.1892333936e-05 6.9131474447e-06 3.6764653487e-05 4.0859398723e-05 7.0270261858e-06
          4.2292531361e-06 3.2641684811e-05 8.3589957285e-06 4.5330591092e-05 4.0460457967e-05 4.8249598876e-06
          3.6680023186e-05 4.0688817535e-05 9.127602425e-06 2.0548402972e-05 2.4344957637e-05 1.5927863615e-06
          2.9021126466e-05 3.9118662244e-05 5.4417687352e-06 3.5476499761e-05 4.0495808207e-05 8.8642082119e-06
          3.5901666706e-05 7.2351933341e-05 1.444389909e-06 3.6057008401e-05 6.8844150519e-05 1.4982310859e-06
          3.4959139157e-05 6.9383124355e-05 1.6371095626e-06 3.6810619349e-05 6.9504872954e-05 1.7918978301e-06
          3.5803514038e-05 6.997174205e-05 1.5810388732e-06 3.7511326809e-05 7.0128859079e-05 1.5734510725e-06
          3.6657740566e-05 7.1170266892e-05 1.5396187791e-06 3.2370567169e-06 5.7181547163e-05 2.4399394079e-06
          3.6125595216e-05 7.0686364779e-05 2.1384087177e-06 3.7354744563e-05 7.0880785643e-05 2.0744691938e-06
          3.8460773794e-05 7.0448899351e-05 2.1236103294e-06 3.7391102524e-05 6.9136396633e-05 2.4908458727e-06
          3.5094759369e-05 6.9529523898e-05 2.7957191833e-06 3.6057132093e-05 6.9683592301e-05 2.9474322218e-06
          3.6836383515e-05 7.0276386396e-05 2.5668180115e-06 3.79231642e-05 7.0717709605e-05 2.792786745e-06
          3.467845454e-05 7.226280286e-05 2.5352931061e-06 3.6848465243e-05 6.9535206421e-05 3.0973917546e-06
          3.4731150663e-05 7.0733854955e-05 3.1844986097e-06 3.6399353121e-05 7.1000969911e-05 3.072925665e-06
          4.1729481381e-06 7.3108843935e-05 3.3565052036e-06 4.2918518375e-06 5.7453209592e-05 3.6326414374e-06
          1.5975567294e-05 6.7329499871e-05 3.6107905999e-06 4.0613385863e-06 7.1705268056e-05 3.9386595745e-06
          4.0477325456e-06 7.392030966e-05 3.9343040044e-06 3.5350971302e-05 7.2007926065e-05 4.193487257e-06
          4.0024492591e-06 5.6385662901e-05 4.9696031965e-06 5.6901271819e-06 7.2546295996e-05 4.7597354751e-06
          3.2001360069e-06 7.3438262916e-05 4.6358245527e-06 4.0701324906e-06 7.377260772e-05 4.8466490625e-06
          4.9797349675e-06 7.3936782428e-05 4.0877116589e-06 4.6418840611e-06 5.8157227613e-05 5.1343517953e-06
          2.3309614335e-05 6.5049265686e-05 5.2310633691e-06 9.2212712843e-06 6.7021879659e-05 5.0415046644e-06
          1.5432658984e-05 6.7665409006e-05 5.3429648688e-06 3.5888315324e-06 7.2725088103e-05 5.2602799769e-06
          4.553110557e-06 7.2986018495e-05 4.9563391258e-06 5.5360701481e-06 7.3138864536e-05 5.5064151638e-06
          1.0096735423e-05 5.4774387536e-05 5.5316522776e-06 9.7545726021e-06 6.8716435635e-05 5.7643710534e-06
          4.7291623559e-06 7.2077193181e-05 6.3087086346e-06 4.6427753659e-06 7.321886369e-05 6.0814259086e-06
          3.1932152069e-06 7.3764189437e-05 5.515691555e-06 4.861330126e-06 7.3840099503e-05 5.3744051911e-06
          9.2587088147e-06 5.3450021369e-05 6.2550161601e-06 5.8046621234e-06 6.2786137278e-05 6.4126329562e-06
          2.4311768357e-05 6.349546311e-05 6.485668564e-06 2.2924699806e-05 6.5984364483e-05 6.478366231e-06
          4.9150908126e-06 7.0333764597e-05 6.2015483309e-06 2.832019527e-05 7.3360686656e-05 6.4284736254e-06
          7.4720787779e-06 6.2049701228e-05 6.5149429247e-06 9.2605469035e-06 6.7012741056e-05 6.7894993663e-06
          5.0922617447e-06 7.2800205089e-05 6.7647488322e-06 3.8343127926e-06 7.2816539614e-05 7.184281003e-06
          2.9269773222e-05 7.3145572969e-05 6.6138250077e-06 3.0052520742e-05 7.3632108979e-05 6.7007767939e-06
          2.2939268092e-05 6.4237268816e-05 7.1855570241e-06 9.9528351711e-06 6.8807654316e-05 7.3954884101e-06
          2.9651951991e-05 7.3372008046e-05 7.5211100921e-06 2.8151816878e-05 7.3993658589e-05 7.1593908615e-06
          6.8999970608e-06 6.291372847e-05 7.8481189121e-06 5.3643461797e-06 7.0681271609e-05 7.8706652857e-06
          5.3367589317e-06 7.3400988185e-05 4.6974864745e-06 4.3453560465e-06 7.2272552643e-05 5.5438190429e-06
          4.0535901462e-06 7.3905583122e-05 6.2154654188e-06 7.7178037827e-06 6.4226362156e-05 8.1402840806e-06
          3.7232575778e-06 7.24906713e-05 3.8631292227e-06 3.0906201118e-06 7.3465082096e-05 6.3064403548e-06
          3.6084802559e-05 6.9540888944e-05 2.112249831e-06 4.1104926822e-06 7.3421870184e-05 6.6725638135e-06
          4.949299182e-05 8.3642400568e-05 5.2076285328e-07 4.9164089432e-05 8.5040126578e-05 4.8835630651e-07
          4.8559071729e-05 8.3221028035e-05 5.1253357469e-07 3.8571484765e-05 8.409430302e-05 7.9834768485e-07
          4.7517303756e-05 8.4498766228e-05 4.7192898478e-07 4.8654532293e-05 8.4204453742e-05 7.6202110222e-07
          4.9519388995e-05 8.4442857769e-05 1.1588804227e-06 4.8669564421e-05 8.5034480435e-05 1.2869129478e-06
          4.9861824664e-05 8.5596249846e-05 1.1293772104e-06 8.7786866061e-06 8.3146456745e-05 1.578712272e-06
          4.8092886573e-05 8.3609898866e-05 2.1215034849e-06 9.5217519629e-06 8.4507591964e-05 1.9895094283e-06
          4.9086353101e-05 8.4572369815e-05 1.9691515263e-06 3.8142050471e-05 8.508002793e-05 2.0023417164e-06
          6.7100513661e-06 8.582706505e-05 1.8979636707e-06 5.2149412113e-06 7.7814140241e-05 2.1345920231e-06
          4.9442078307e-05 8.3725237346e-05 2.2853555492e-06 4.9732268963e-05 8.5634339484e-05 2.0839891022e-06
          7.6935248217e-06 8.6745079898e-05 2.4599835342e-06 5.5430709835e-06 8.0844183685e-05 2.9548582461e-06
          3.9527993067e-05 8.4563624114e-05 2.784409844e-06 4.9181973736e-05 8.5136576672e-05 2.7335427149e-06
          6.7065675466e-06 8.6539956101e-05 2.6233392418e-06 5.066941867e-06 7.9038727563e-05 3.3460951272e-06
          4.9315010983e-05 8.406311099e-05 3.1969480006e-06 7.7736749517e-06 8.6191081209e-05 3.2492459923e-06
          4.3938598537e-05 7.629924221e-05 3.5444036257e-06 8.5807032519e-06 8.4172810602e-05 3.5911093619e-06
          6.8149729486e-06 8.5857340309e-05 3.2529962937e-06 9.0393396022e-06 8.6574851593e-05 3.8557050175e-06
          7.4391523412e-06 8.7230779172e-05 3.6927804103e-06 6.7246628532e-06 8.7952212198e-05 3.671045306e-06
          4.0088107198e-05 9.1251007689e-05 3.8960856727e-06 3.8349036913e-05 9.1934394732e-05 3.6296064536e-06
          4.2598334403e-05 7.7140335634e-05 4.122813607e-06 6.5044073381e-06 8.0365512986e-05 4.1504649744e-06
          9.383802535e-06 8.5958752607e-05 4.4703915592e-06 8.116695426e-06 8.5600069724e-05 4.2015717554e-06
          6.1682335399e-06 8.698952297e-05 4.2381489038e-06 2.4961114832e-05 8.925498696e-05 4.1417279135e-06
          3.9111047954e-05 8.4646118921e-05 4.5085544116e-06 6.3070019678e-06 8.6565829406e-05 5.0390008255e-06
          7.7029799286e-06 8.6507454398e-05 4.2942274376e-06 9.0491312221e-06 8.6649793957e-05 5.0674798331e-06
          6.9707680268e-06 8.7194493972e-05 5.0855096561e-06 7.8346174632e-06 8.7416854512e-05 4.6381983339e-06
          6.7182145358e-06 8.8032946223e-05 4.8271604101e-06 2.9090004318e-05 7.473394362e-05 5.1067227105e-06
          4.5565415348e-05 7.7881799371e-05 5.3047065194e-06 5.2048499128e-06 7.4727882748e-05 5.6007061175e-06
          2.9775079383e-05 7.4075695011e-05 5.911937933e-06 3.0539802538e-05 7.463953807e-05 5.591793979e-06
          2.8385302357e-05 7.507763803e-05 5.6982339629e-06 4.7742803872e-05 7.734393148e-05 5.8653213273e-06
          4.6220749937e-05 7.9680234194e-05 5.5109399e-06 8.3780341811e-06 8.7253363745e-05 5.6061871874e-06
          2.4976714485e-05 8.967192116e-05 5.8179530242e-06 4.8069527111e-05 9.5791998319e-05 5.8057726164e-06
          2.8816790291e-05 7.4186369602e-05 6.1294349507e-06 5.131272701e-06 7.4682291597e-05 6.5113022174e-06
          2.9836775866e-05 7.5010080764e-05 6.1836021814e-06 4.5788156058e-06 7.4107549153e-05 6.9102511588e-06
          2.9210259527e-05 7.5007410487e-05 7.0225614763e-06 1.1915460163e-05 7.6089592767e-05 6.9380971581e-06
          4.6917721193e-05 7.6038340922e-05 6.6009642978e-06 2.6023319151e-05 8.9803965238e-05 6.9983357207e-06
          1.2405569578e-05 7.4423478509e-05 7.0267292358e-06 2.9102126064e-05 7.4089817645e-05 7.1486683737e-06
          4.7234898375e-05 9.554099961e-05 7.1515655691e-06 2.842315007e-05 7.43178025e-05 8.0517693277e-06
          2.9801445635e-05 7.456025196e-05 7.6581636677e-06 2.9444574466e-05 7.5397401815e-05 7.9918218034e-06
          4.8044068535e-05 7.767626812e-05 7.6174947026e-06 4.8372210586e-05 9.4607072242e-05 7.7985050666e-06
          1.2597938621e-05 7.4517389294e-05 8.6206282504e-06 4.7060271754e-05 9.4531795185e-05 8.8398037406e-06
          4.8321115173e-05 8.4333456471e-05 1.6344866935e-06 6.8602521424e-06 8.6441985331e-05 3.9141682464e-06
          7.2921056926e-06 8.6382744485e-05 5.0695484788e-06 2.843085349e-05 7.5012489106e-05 6.6241714194e-06
          4.7788325901e-05 8.4278137365e-05 1.2350660654e-06 8.700764738e-06 8.6047351942e-05 4.6071327233e-06
          8.4276034613e-06 8.694317512e-05 4.6013474275e-06 5.0301117881e-05 1.3285140994e-05 1.9275835257e-06
          5.6817512814e-05 2.3459810109e-05 1.8996136077e-06 5.1295010053e-05 1.3567134374e-05 1.9433321086e-06
          6.3416089688e-05 1.4986081624e-05 2.2753647499e-06 5.0601567636e-05 1.2560780306e-05 2.5178121632e-06
          6.3629420765e-05 1.2713137039e-05 2.9392024317e-06 5.0356822612e-05 1.382026403e-05 2.6695317956e-06
          5.5997952586e-05 2.2164627808e-05 2.6070381409e-06 5.0164257118e-05 1.2905048607e-05 3.2422217373e-06
          5.1101844292e-05 1.3690762898e-05 3.2264508718e-06 6.4395353547e-05 1.4054089661e-05 3.3753592561e-06
          9.3498878414e-05 8.0360941865e-06 3.9934116103e-06 5.1122569857e-05 1.26402565e-05 3.8893053897e-06
          5.0470720453e-05 1.3540854525e-05 3.8411189962e-06 5.1572504162e-05 1.3448845493e-05 3.9897113311e-06
          8.031395555e-05 1.8418302716e-05 3.6050810195e-06 5.9277845139e-05 5.1279284889e-06 4.9013542593e-06