<?xml version="1.0"?>
<VTKFile type="UnstructuredGrid" version="0.1" byte_order="LittleEndian" header_type="UInt32" compressor="vtkZLibDataCompressor">
  <UnstructuredGrid>
    <Piece NumberOfPoints="117" NumberOfCells="117">
      <PointData>
        <DataArray type="Int32" Name="id" format="ascii" RangeMin="1" RangeMax="117">
          75 50 19 59 97 42
          49 15 22 44 3 93
          40 1 117 78 24 7
          54 20 109 62 106 84
          61 77 32 51 85 60
          81 105 18 92 82 67
          14 26 57 12 89 111
          64 34 37 90 46 101
          86 79 35 2 69 115
          48 72 39 13 30 113
          99 23 96 95 110 43
          56 73 33 6 38 116
          88 47 87 91 17 41
          58 102 10 107 11 66
          103 45 36 68 55 25
          80 5 74 4 108 9
          76 52 104 21 29 65
          28 8 94 83 114 63
          53 27 31 70 16 100
          112 71 98
        </DataArray>
        <DataArray type="Int32" Name="type" format="ascii" RangeMin="1" RangeMax="2">
          2 1 1 1 1 1
          1 1 1 1 1 1
          1 1 1 2 1 1
          1 1 2 2 2 1
          2 2 1 1 1 1
          1 2 1 1 1 2
          1 1 1 1 1 2
          2 1 1 1 1 1
          1 2 1 1 2 1
          1 2 1 1 1 2
          1 1 1 1 1 1
          1 2 1 1 1 1
          1 1 1 1 1 1
          1 1 1 2 1 2
          1 1 1 2 1 1
          1 1 2 1 2 1
          2 1 1 1 1 2
          1 1 1 1 2 2
          1 1 1 2 1 1
          2 2 1
        </DataArray>
        <DataArray type="Float64" Name="diameter" format="ascii" RangeMin="8.1379179461e-07" RangeMax="1.9635370064e-06">
          9.5558824652e-07 1.8942357013e-06 1.9404365603e-06 1.5577025559e-06 1.7165438983e-06 1.6632313693e-06
          1.9057859296e-06 1.9635369911e-06 1.6054802819e-06 1.7556331091e-06 1.6978820215e-06 1.7468566657e-06
          1.6221411172e-06 1.5281090855e-06 1.6052485214e-06 1.01320661e-06 1.8249344071e-06 1.7440828789e-06
          1.9635370064e-06 1.6447250574e-06 8.9963698344e-07 8.3830896734e-07 8.2408609351e-07 1.8124402245e-06
          9.1857757222e-07 1.0488609505e-06 1.6889626674e-06 1.6621295362e-06 1.7742220416e-06 1.9173361289e-06
          1.8316194574e-06 8.3911253454e-07 1.7671833104e-06 1.6432307519e-06 1.8133131773e-06 9.3533886126e-07
          1.8192343268e-06 1.7456215628e-06 1.6838530205e-06 1.8364846155e-06 1.6156943847e-06 8.9632222916e-07
          8.3522017898e-07 1.6417581211e-06 1.6447250258e-06 1.7753380243e-06 1.6485890669e-06 1.5841428332e-06
          1.812440188e-06 8.3827786027e-07 1.7440828649e-06 1.9288863424e-06 9.3426060632e-07 1.4962922831e-06
          1.9635369872e-06 8.5875509984e-07 1.7514968901e-06 1.6498234946e-06 1.6353448177e-06 8.4998930491e-07
          1.5721721209e-06 1.6701352201e-06 1.5555355632e-06 1.7178975524e-06 1.5366428028e-06 1.7440828818e-06
          1.6323920464e-06 1.0027066569e-06 1.6044454497e-06 1.6447250277e-06 1.671090056e-06 1.5481395958e-06
          1.7943256127e-06 1.7031130112e-06 1.812440188e-06 1.7554472176e-06 1.8018339758e-06 1.6662210545e-06
          1.8364846243e-06 1.5125649806e-06 1.7209824537e-06 8.2336081111e-07 1.5315958096e-06 9.1778078836e-07
          1.6877750072e-06 1.6516811522e-06 1.8249344234e-06 1.0052300405e-06 1.6882362622e-06 1.836484619e-06
          1.8603883306e-06 1.6632313652e-06 9.7407604907e-07 1.7671833223e-06 8.228800397e-07 1.91733614e-06
          9.1724204412e-07 1.7325326743e-06 1.5632897708e-06 1.5939300478e-06 1.6606994071e-06 1.0240219568e-06
          1.6621295247e-06 1.7440828651e-06 1.7468566719e-06 1.8316194478e-06 8.8529552242e-07 8.2508520754e-07
          1.6221411223e-06 1.7127897801e-06 1.590663274e-06 1.0041114314e-06 1.7671833263e-06 1.5211590883e-06
          8.1379179461e-07 9.0711443239e-07 1.6709604687e-06
        </DataArray>
      </PointData>
      <CellData>
      </CellData>
      <Points>
        <DataArray type="Float32" Name="Points" NumberOfComponents="3" format="ascii" RangeMin="9.888468375e-06" RangeMax="0.00013124058025">
          1.9700000848e-05 2.3399999918e-05 9.4000000672e-07 1.3099999705e-05 1.6300000425e-05 2.140000106e-06
          4.9499999477e-06 8.130000424e-06 2.6800000796e-06 4.0758306568e-05 1.5489024008e-05 2.5658885079e-06
          4.1265077016e-05 1.5512037862e-05 4.1261105252e-06 1.7200000002e-05 5.7000002016e-06 6.1699997786e-06
          3.1799998396e-05 8.6800000645e-06 6.1800001276e-06 1.7700000399e-06 1.0099999599e-05 6.6200000219e-06
          1.4600000213e-05 8.9300001491e-06 7.4399999903e-06 2.5600000299e-05 1.6800000594e-05 7.3599999268e-06
          4.6400000429e-05 1.1600000107e-05 7.9499995991e-06 1.393018465e-05 3.873166861e-05 1.6557711433e-06
          1.4451876268e-05 4.021724817e-05 2.2633369099e-06 2.9405002351e-05 4.0583163354e-05 3.6088240449e-06
          2.939474507e-05 3.9797494537e-05 4.9645523177e-06 4.5600001613e-05 4.110000009e-05 4.6999998631e-06
          3.9300000935e-05 3.8400001358e-05 5.3700000535e-06 1.7500000467e-05 4.059999992e-05 5.6099997892e-06
          3.1399998988e-05 4.9300000683e-05 5.5499999689e-06 4.8656033869e-06 2.9488446671e-05 7.1767763075e-06
          4.6908057811e-06 3.2792104321e-05 7.1554222814e-06 5.3277485677e-06 3.3387837902e-05 7.1836279858e-06
          3.6825549614e-05 4.015984814e-05 7.7888516898e-06 5.3978183132e-06 2.9512617402e-05 8.8153319666e-06
          3.7193483877e-05 4.0244533011e-05 8.5716446847e-06 3.6599998566e-05 7.0100002631e-05 2.2199999421e-06
          3.5305522033e-05 7.2222966992e-05 2.0801371647e-06 3.7653921936e-06 5.7288438256e-05 3.2261266369e-06
          3.5294226109e-05 7.1357702836e-05 3.5732125525e-06 1.5699999494e-05 6.7499997385e-05 4.4899998102e-06
          4.2980509534e-06 5.7312627177e-05 4.8660481298e-06 4.204988727e-06 7.3259718192e-05 4.8676597544e-06
          9.6699995993e-06 5.4100000852e-05 5.8999999055e-06 2.3151373171e-05 6.538839807e-05 5.9381336541e-06
          9.2742766356e-06 6.7114844569e-05 5.91889102e-06 4.5741098802e-06 7.3344679549e-05 5.6529729591e-06
          6.6232978497e-06 6.250624574e-05 6.5787285166e-06 2.3662987587e-05 6.3971841882e-05 6.7033438427e-06
          9.807803508e-06 6.8634122727e-05 6.5402396103e-06 5.1299998631e-06 7.0499998401e-05 7.000000096e-06
          7.3003157013e-06 6.3443389081e-05 7.8527964433e-06 4.8969628551e-05 8.4090999735e-05 1.2153700482e-06
          4.9608846894e-05 8.4688865172e-05 1.2436767065e-06 9.100475836e-06 8.3851213276e-05 1.932751502e-06
          3.8545604184e-05 8.4588449681e-05 1.7167765236e-06 5.2747654991e-06 7.8716235294e-05 2.8194601782e-06
          5.8073496803e-06 8.0232835899e-05 3.4397112358e-06 8.6277568698e-06 8.414369222e-05 3.4409815726e-06
          3.9077818656e-05 8.4612620412e-05 3.3553319554e-06 7.1072563514e-06 8.6621112132e-05 3.180804697e-06
          4.3299998651e-05 7.6700001955e-05 3.8200000745e-06 3.9200000174e-05 9.1599998996e-05 3.7600000269e-06
          7.8320481407e-06 8.6787935288e-05 4.7228168114e-06 2.5010243917e-05 8.9353219664e-05 4.5650012908e-06
          4.5900000259e-05 7.8800003394e-05 5.4100000852e-06 2.9317818189e-05 7.438474131e-05 6.2472645368e-06
          4.7358880693e-05 7.6727817941e-05 6.3280526774e-06 2.540922651e-05 8.9661836682e-05 6.0473371377e-06
          4.7705398174e-05 9.5513467386e-05 6.7065375333e-06 2.9083383197e-05 7.4216120993e-05 7.0287264862e-06
          1.1963709767e-05 7.5954238127e-05 7.0065866566e-06 1.245063595e-05 7.4606039561e-05 7.7348704508e-06
          4.8004716518e-05 7.7621793025e-05 7.5434390965e-06 4.7694349632e-05 9.4667178928e-05 8.1668576968e-06
          6.3470601162e-05 1.4835149159e-05 2.3568975394e-06 5.6400000176e-05 2.2800000806e-05 2.2599999738e-06
          6.3943691202e-05 1.3525274881e-05 3.0644814615e-06 5.0800001191e-05 1.3300000319e-05 3.5800001115e-06
          5.8734836784e-05 5.4047000049e-06 4.4607459131e-06 8.0145604443e-05 1.8888445993e-05 4.3067766455e-06
          9.3605514849e-05 8.0425752458e-06 4.9408176892e-06 5.8273406466e-05 5.6902008509e-06 5.9329599935e-06
          9.3024507805e-05 1.6115502149e-05 5.5491595958e-06 5.44664872e-05 1.7038344595e-05 5.6023673096e-06
          8.0677818914e-05 1.8912616724e-05 5.9453318499e-06 9.3594229838e-05 7.1781178121e-06 6.4324976847e-06
          7.0900001447e-05 1.2700000298e-05 6.1400000959e-06 9.3557588116e-05 1.7633516109e-05 6.1699906837e-06
          8.7400003395e-05 3.549999974e-06 6.6600000537e-06 5.5097079894e-05 1.791122304e-05 6.7890687205e-06
          9.3100003141e-05 2.3900000087e-05 7.4300000961e-06 5.3025694797e-05 4.855987936e-05 2.0791592306e-06
          5.7263954659e-05 3.8489280996e-05 2.5732726954e-06 5.3393323469e-05 4.8644498747e-05 2.8613017093e-06
          5.775948739e-05 3.8511785533e-05 4.0988934416e-06 7.2800001362e-05 4.9700000091e-05 5.4199999795e-06
          8.859999798e-05 2.5900000765e-05 8.0899999375e-06 7.4299998232e-05 7.3700000939e-05 1.3400000398e-06
          5.22389455e-05 5.3388142987e-05 2.0762761324e-06 9.2800000857e-05 5.4000000091e-05 2.6299999263e-06
          5.2784525906e-05 5.3412921261e-05 3.7559832435e-06 7.4399998994e-05 7.1700000262e-05 3.7800000428e-06
          7.9199999163e-05 7.0299996878e-05 4.3400000322e-06 7.6600001194e-05 5.6500000937e-05 4.8699998842e-06
          7.5625757745e-05 5.7459896198e-05 5.2793020586e-06 8.7699998403e-05 5.0400001783e-05 5.9399999373e-06
          7.5993251812e-05 5.7544479205e-05 6.0611423578e-06 7.9899997218e-05 6.6799999331e-05 7.1700001172e-06
          7.4363910244e-05 8.6153690063e-05 1.4568830693e-06 5.0700000429e-05 7.5800002378e-05 1.5699999949e-06
          7.4850424426e-05 8.4806626546e-05 2.184555342e-06 9.7500000265e-05 8.7799999164e-05 3.0000001061e-06
          8.234539564e-05 8.9088440291e-05 3.9961269067e-06 7.1800001024e-05 9.4000002719e-05 4.5400001909e-06
          7.0930182119e-05 8.9331668278e-05 5.4157712839e-06 8.2878053945e-05 8.9112625574e-05 5.6360481722e-06
          8.6084663053e-05 7.7805067122e-05 6.4060359364e-06 8.6693842604e-05 7.837483281e-05 6.433012004e-06
          7.1451875556e-05 9.08172442e-05 6.0233369368e-06 7.5366202509e-05 9.4037954113e-05 6.5818389885e-06
          6.4105144702e-05 8.9793837105e-05 7.4904028224e-06 5.4000000091e-05 9.560000035e-05 7.1099998422e-06
          9.1599998996e-05 8.3600003563e-05 7.7900003816e-06 7.5997326348e-05 9.4911571068e-05 7.7695385698e-06
          9.2533322459e-05 8.4561637777e-05 8.0153831732e-06 9.2885791673e-05 8.4642764705e-05 8.7652824732e-06
          6.4094609115e-05 8.8986787887e-05 8.8830302047e-06
        </DataArray>
      </Points>
      <Cells>
        <DataArray type="Int64" Name="connectivity" format="ascii" RangeMin="0" RangeMax="116">
          0 1 2 3 4 5
          6 7 8 9 10 11
          12 13 14 15 16 17
          18 19 20 21 22 23
          24 25 26 27 28 29
          30 31 32 33 34 35
          36 37 38 39 40 41
          42 43 44 45 46 47
          48 49 50 51 52 53
          54 55 56 57 58 59
          60 61 62 63 64 65
          66 67 68 69 70 71
          72 73 74 75 76 77
          78 79 80 81 82 83
          84 85 86 87 88 89
          90 91 92 93 94 95
          96 97 98 99 100 101
          102 103 104 105 106 107
          108 109 110 111 112 113
          114 115 116
        </DataArray>
        <DataArray type="Int64" Name="offsets" format="ascii" RangeMin="1" RangeMax="117">
          1 2 3 4 5 6
          7 8 9 10 11 12
          13 14 15 16 17 18
          19 20 21 22 23 24
          25 26 27 28 29 30
          31 32 33 34 35 36
          37 38 39 40 41 42
          43 44 45 46 47 48
          49 50 51 52 53 54
          55 56 57 58 59 60
          61 62 63 64 65 66
          67 68 69 70 71 72
          73 74 75 76 77 78
          79 80 81 82 83 84
          85 86 87 88 89 90
          91 92 93 94 95 96
          97 98 99 100 101 102
          103 104 105 106 107 108
          109 110 111 112 113 114
          115 116 117
        </DataArray>
        <DataArray type="UInt8" Name="types" format="ascii" RangeMin="1" RangeMax="1">
          1 1 1 1 1 1
          1 1 1 1 1 1
          1 1 1 1 1 1
          1 1 1 1 1 1
          1 1 1 1 1 1
          1 1 1 1 1 1
          1 1 1 1 1 1
          1 1 1 1 1 1
          1 1 1 1 1 1
          1 1 1 1 1 1
          1 1 1 1 1 1
          1 1 1 1 1 1
          1 1 1 1 1 1
          1 1 1 1 1 1
          1 1 1 1 1 1
          1 1 1 1 1 1
          1 1 1 1 1 1
          1 1 1 1 1 1
          1 1 1 1 1 1
          1 1 1
        </DataArray>
      </Cells>
    </Piece>
  </UnstructuredGrid>
</VTKFile>
