ITEM: TIMESTEP
0
ITEM: NUMBER OF ATOMS
78
ITEM: BOX BOUNDS ff ff ff
0.0000000000000000e+00 1.0000000000000000e-04
0.0000000000000000e+00 1.0000000000000000e-04
0.0000000000000000e+00 1.0000000000000001e-05
ITEM: ATOMS id type diameter x y z 
75 2 8.93e-07 1.97e-05 2.34e-05 9.4e-07 
50 1 1.64e-06 1.31e-05 1.63e-05 2.14e-06 
19 1 1.68e-06 4.95e-06 8.13e-06 2.68e-06 
59 1 1.79e-06 4.1e-05 1.55e-05 3.31e-06 
42 1 1.44e-06 1.72e-05 5.7e-06 6.17e-06 
49 1 1.65e-06 3.18e-05 8.68e-06 6.18e-06 
15 1 1.7e-06 1.77e-06 1.01e-05 6.62e-06 
22 1 1.39e-06 1.46e-05 8.93e-06 7.44e-06 
44 1 1.52e-06 2.56e-05 1.68e-05 7.36e-06 
3 1 1.47e-06 4.64e-05 1.16e-05 7.95e-06 
40 1 1.84e-06 1.42e-05 3.95e-05 1.97e-06 
1 1 1.71e-06 2.94e-05 4.02e-05 4.27e-06 
78 2 9.5e-07 4.56e-05 4.11e-05 4.7e-06 
24 1 1.58e-06 3.93e-05 3.84e-05 5.37e-06 
7 1 1.51e-06 1.75e-05 4.06e-05 5.61e-06 
54 1 1.7e-06 3.14e-05 4.93e-05 5.55e-06 
62 2 1.02e-06 5.02e-06 3.31e-05 7.17e-06 
20 1 1.89e-06 5.12e-06 2.95e-05 7.96e-06 
61 2 1.03e-06 3.7e-05 4.02e-05 8.16e-06 
77 2 9.73e-07 3.66e-05 7.01e-05 2.22e-06 
32 1 1.89e-06 3.53e-05 7.18e-05 2.81e-06 
51 1 1.91e-06 4.02e-06 5.73e-05 4.01e-06 
60 1 1.66e-06 1.57e-05 6.75e-05 4.49e-06 
67 2 1.02e-06 4.38e-06 7.33e-05 5.24e-06 
18 1 1.53e-06 9.67e-06 5.41e-05 5.9e-06 
26 1 1.85e-06 2.34e-05 6.47e-05 6.31e-06 
57 1 1.91e-06 9.55e-06 6.79e-05 6.24e-06 
12 1 1.59e-06 5.13e-06 7.05e-05 7e-06 
14 1 1.88e-06 6.98e-06 6.3e-05 7.25e-06 
64 2 1.01e-06 4.93e-05 8.44e-05 1.23e-06 
34 1 1.76e-06 8.86e-06 8.4e-05 2.7e-06 
37 1 1.89e-06 3.88e-05 8.46e-05 2.5e-06 
46 1 1.87e-06 5.55e-06 7.95e-05 3.14e-06 
35 1 1.51e-06 4.33e-05 7.67e-05 3.82e-06 
69 2 1.04e-06 7.45e-06 8.67e-05 3.91e-06 
2 1 1.67e-06 3.92e-05 9.16e-05 3.76e-06 
48 1 1.7e-06 4.59e-05 7.88e-05 5.41e-06 
13 1 1.72e-06 2.52e-05 8.95e-05 5.27e-06 
72 2 1e-06 2.92e-05 7.43e-05 6.64e-06 
39 1 1.81e-06 4.77e-05 7.72e-05 6.97e-06 
23 1 1.77e-06 1.22e-05 7.53e-05 7.36e-06 
30 1 1.83e-06 4.77e-05 9.51e-05 7.42e-06 
43 1 1.51e-06 5.64e-05 2.28e-05 2.26e-06 
56 1 1.73e-06 6.37e-05 1.42e-05 2.7e-06 
73 2 9.32e-07 5.08e-05 1.33e-05 3.58e-06 
33 1 1.72e-06 5.85e-05 5.55e-06 5.21e-06 
6 1 1.89e-06 8.04e-05 1.89e-05 5.09e-06 
38 1 1.87e-06 9.36e-05 7.62e-06 5.67e-06 
41 1 1.89e-06 9.33e-05 1.69e-05 5.87e-06 
17 1 1.56e-06 7.09e-05 1.27e-05 6.14e-06 
47 1 1.76e-06 5.48e-05 1.75e-05 6.23e-06 
58 1 1.59e-06 8.74e-05 3.55e-06 6.66e-06 
10 1 1.49e-06 9.31e-05 2.39e-05 7.43e-06 
66 2 1.03e-06 5.32e-05 4.86e-05 2.45e-06 
11 1 1.76e-06 5.75e-05 3.85e-05 3.3e-06 
45 1 1.43e-06 7.28e-05 4.97e-05 5.42e-06 
36 1 1.58e-06 8.86e-05 2.59e-05 8.09e-06 
68 2 9.4e-07 7.43e-05 7.37e-05 1.34e-06 
55 1 1.94e-06 5.25e-05 5.34e-05 2.88e-06 
25 1 1.59e-06 9.28e-05 5.4e-05 2.63e-06 
5 1 1.44e-06 7.44e-05 7.17e-05 3.78e-06 
74 2 9.12e-07 7.92e-05 7.03e-05 4.34e-06 
4 1 1.53e-06 7.66e-05 5.65e-05 4.87e-06 
9 1 1.66e-06 8.77e-05 5.04e-05 5.94e-06 
76 2 1.03e-06 7.58e-05 5.75e-05 5.65e-06 
52 1 1.5e-06 7.99e-05 6.68e-05 7.17e-06 
21 1 1.38e-06 5.07e-05 7.58e-05 1.57e-06 
29 1 1.76e-06 7.46e-05 8.55e-05 1.81e-06 
65 2 9.63e-07 9.75e-05 8.78e-05 3e-06 
28 1 1.91e-06 8.26e-05 8.91e-05 4.78e-06 
8 1 1.51e-06 7.18e-05 9.4e-05 4.54e-06 
53 1 1.84e-06 7.12e-05 9.01e-05 5.73e-06 
63 2 1.01e-06 8.64e-05 7.81e-05 6.42e-06 
27 1 1.77e-06 7.57e-05 9.45e-05 7.21e-06 
70 2 9.33e-07 5.4e-05 9.56e-05 7.11e-06 
16 1 1.53e-06 9.16e-05 8.36e-05 7.79e-06 
71 2 1.02e-06 9.27e-05 8.46e-05 8.37e-06 
31 1 1.78e-06 6.41e-05 8.94e-05 8.17e-06 
ITEM: TIMESTEP
100
ITEM: NUMBER OF ATOMS
79
ITEM: BOX BOUNDS ff ff ff
0.0000000000000000e+00 1.0000000000000000e-04
0.0000000000000000e+00 1.0000000000000000e-04
0.0000000000000000e+00 1.0000000000000001e-05
ITEM: ATOMS id type diameter x y z 
75 2 8.87335e-07 1.97e-05 2.34e-05 9.4e-07 
50 1 1.6479e-06 1.31e-05 1.63e-05 2.14e-06 
19 1 1.68809e-06 4.95e-06 8.13e-06 2.68e-06 
59 1 1.79862e-06 4.1e-05 1.55e-05 3.31e-06 
42 1 1.44693e-06 1.72e-05 5.7e-06 6.17e-06 
49 1 1.65795e-06 3.18e-05 8.68e-06 6.18e-06 
15 1 1.70819e-06 1.77e-06 1.01e-05 6.62e-06 
22 1 1.39669e-06 1.46e-05 8.93e-06 7.44e-06 
44 1 1.52732e-06 2.56e-05 1.68e-05 7.36e-06 
3 1 1.47708e-06 4.64e-05 1.16e-05 7.95e-06 
40 1 1.84886e-06 1.42e-05 3.95e-05 1.97e-06 
1 1 1.71823e-06 2.94e-05 4.02e-05 4.27e-06 
78 2 9.43973e-07 4.56e-05 4.11e-05 4.7e-06 
24 1 1.58761e-06 3.93e-05 3.84e-05 5.37e-06 
7 1 1.51727e-06 1.75e-05 4.06e-05 5.61e-06 
54 1 1.70819e-06 3.14e-05 4.93e-05 5.55e-06 
62 2 1.01353e-06 5.02e-06 3.31e-05 7.17e-06 
20 1 1.8991e-06 5.12e-06 2.95e-05 7.96e-06 
61 2 1.02347e-06 3.7e-05 4.02e-05 8.16e-06 
77 2 9.66827e-07 3.66e-05 7.01e-05 2.22e-06 
32 1 1.8991e-06 3.53e-05 7.18e-05 2.81e-06 
51 1 1.9192e-06 4.02e-06 5.73e-05 4.01e-06 
60 1 1.66799e-06 1.57e-05 6.75e-05 4.49e-06 
67 2 1.01353e-06 4.38e-06 7.33e-05 5.24e-06 
18 1 1.53737e-06 9.67e-06 5.41e-05 5.9e-06 
26 1 1.85891e-06 2.34e-05 6.47e-05 6.31e-06 
57 1 1.9192e-06 9.55e-06 6.79e-05 6.24e-06 
12 1 1.59766e-06 5.13e-06 7.05e-05 7e-06 
14 1 1.88905e-06 6.98e-06 6.3e-05 7.25e-06 
64 2 1.00359e-06 4.93e-05 8.44e-05 1.23e-06 
34 1 1.76848e-06 8.86e-06 8.4e-05 2.7e-06 
37 1 1.8991e-06 3.88e-05 8.46e-05 2.5e-06 
46 1 1.87901e-06 5.55e-06 7.95e-05 3.14e-06 
35 1 1.51727e-06 4.33e-05 7.67e-05 3.82e-06 
69 2 8.62163e-07 7.83205e-06 8.67879e-05 4.72282e-06 
2 1 1.67804e-06 3.92e-05 9.16e-05 3.76e-06 
48 1 1.70819e-06 4.59e-05 7.88e-05 5.41e-06 
13 1 1.72828e-06 2.52e-05 8.95e-05 5.27e-06 
72 2 9.93656e-07 2.92e-05 7.43e-05 6.64e-06 
39 1 1.81872e-06 4.77e-05 7.72e-05 6.97e-06 
23 1 1.77852e-06 1.22e-05 7.53e-05 7.36e-06 
30 1 1.83881e-06 4.77e-05 9.51e-05 7.42e-06 
79 2 7.73465e-07 7.10726e-06 8.66211e-05 3.1808e-06 
43 1 1.51727e-06 5.64e-05 2.28e-05 2.26e-06 
56 1 1.73833e-06 6.37e-05 1.42e-05 2.7e-06 
73 2 9.26087e-07 5.08e-05 1.33e-05 3.58e-06 
33 1 1.72828e-06 5.85e-05 5.55e-06 5.21e-06 
6 1 1.8991e-06 8.04e-05 1.89e-05 5.09e-06 
38 1 1.87901e-06 9.36e-05 7.62e-06 5.67e-06 
41 1 1.8991e-06 9.33e-05 1.69e-05 5.87e-06 
17 1 1.56751e-06 7.09e-05 1.27e-05 6.14e-06 
47 1 1.76848e-06 5.48e-05 1.75e-05 6.23e-06 
58 1 1.59766e-06 8.74e-05 3.55e-06 6.66e-06 
10 1 1.49718e-06 9.31e-05 2.39e-05 7.43e-06 
66 2 1.02347e-06 5.32e-05 4.86e-05 2.45e-06 
11 1 1.76848e-06 5.75e-05 3.85e-05 3.3e-06 
45 1 1.43689e-06 7.28e-05 4.97e-05 5.42e-06 
36 1 1.58761e-06 8.86e-05 2.59e-05 8.09e-06 
68 2 9.34036e-07 7.43e-05 7.37e-05 1.34e-06 
55 1 1.94934e-06 5.25e-05 5.34e-05 2.88e-06 
25 1 1.59766e-06 9.28e-05 5.4e-05 2.63e-06 
5 1 1.44693e-06 7.44e-05 7.17e-05 3.78e-06 
74 2 9.06214e-07 7.92e-05 7.03e-05 4.34e-06 
4 1 1.53737e-06 7.66e-05 5.65e-05 4.87e-06 
9 1 1.66799e-06 8.77e-05 5.04e-05 5.94e-06 
76 2 1.02347e-06 7.58e-05 5.75e-05 5.65e-06 
52 1 1.50722e-06 7.99e-05 6.68e-05 7.17e-06 
21 1 1.38665e-06 5.07e-05 7.58e-05 1.57e-06 
29 1 1.76848e-06 7.46e-05 8.55e-05 1.81e-06 
65 2 9.5689e-07 9.75e-05 8.78e-05 3e-06 
28 1 1.9192e-06 8.26e-05 8.91e-05 4.78e-06 
8 1 1.51727e-06 7.18e-05 9.4e-05 4.54e-06 
53 1 1.84886e-06 7.12e-05 9.01e-05 5.73e-06 
63 2 1.00359e-06 8.64e-05 7.81e-05 6.42e-06 
27 1 1.77852e-06 7.57e-05 9.45e-05 7.21e-06 
70 2 9.27081e-07 5.4e-05 9.56e-05 7.11e-06 
16 1 1.53737e-06 9.16e-05 8.36e-05 7.79e-06 
71 2 1.01353e-06 9.27e-05 8.46e-05 8.37e-06 
31 1 1.78857e-06 6.41e-05 8.94e-05 8.17e-06 
ITEM: TIMESTEP
200
ITEM: NUMBER OF ATOMS
79
ITEM: BOX BOUNDS ff ff ff
0.0000000000000000e+00 1.0000000000000000e-04
0.0000000000000000e+00 1.0000000000000000e-04
0.0000000000000000e+00 1.0000000000000001e-05
ITEM: ATOMS id type diameter x y z 
75 2 8.8228e-07 1.97e-05 2.34e-05 9.4e-07 
50 1 1.65583e-06 1.31e-05 1.63e-05 2.14e-06 
19 1 1.69622e-06 4.95e-06 8.13e-06 2.68e-06 
59 1 1.80728e-06 4.1e-05 1.55e-05 3.31e-06 
42 1 1.4539e-06 1.72e-05 5.7e-06 6.17e-06 
49 1 1.66593e-06 3.18e-05 8.68e-06 6.18e-06 
15 1 1.71641e-06 1.77e-06 1.01e-05 6.62e-06 
22 1 1.40342e-06 1.46e-05 8.93e-06 7.44e-06 
44 1 1.53467e-06 2.56e-05 1.68e-05 7.36e-06 
3 1 1.48419e-06 4.64e-05 1.16e-05 7.95e-06 
40 1 1.85776e-06 1.42e-05 3.95e-05 1.97e-06 
1 1 1.72651e-06 2.94e-05 4.02e-05 4.27e-06 
78 2 9.38478e-07 4.56e-05 4.11e-05 4.7e-06 
24 1 1.59525e-06 3.93e-05 3.84e-05 5.37e-06 
7 1 1.52458e-06 1.75e-05 4.06e-05 5.61e-06 
54 1 1.71641e-06 3.14e-05 4.93e-05 5.55e-06 
62 2 1.00784e-06 5.02e-06 3.31e-05 7.17e-06 
20 1 1.90825e-06 5.12e-06 2.95e-05 7.96e-06 
61 2 1.01755e-06 3.7e-05 4.02e-05 8.16e-06 
77 2 9.61379e-07 3.66e-05 7.01e-05 2.22e-06 
32 1 1.90825e-06 3.53e-05 7.18e-05 2.81e-06 
51 1 1.92844e-06 4.02e-06 5.73e-05 4.01e-06 
60 1 1.67603e-06 1.57e-05 6.75e-05 4.49e-06 
67 2 1.008e-06 4.38e-06 7.33e-05 5.24e-06 
18 1 1.54477e-06 9.67e-06 5.41e-05 5.9e-06 
26 1 1.86786e-06 2.34e-05 6.47e-05 6.31e-06 
57 1 1.92844e-06 9.55e-06 6.79e-05 6.24e-06 
12 1 1.60535e-06 5.13e-06 7.05e-05 7e-06 
14 1 1.89815e-06 6.98e-06 6.3e-05 7.25e-06 
64 2 9.97955e-07 4.93e-05 8.44e-05 1.23e-06 
34 1 1.77699e-06 8.86e-06 8.4e-05 2.7e-06 
37 1 1.90825e-06 3.88e-05 8.46e-05 2.5e-06 
46 1 1.88805e-06 5.55e-06 7.95e-05 3.14e-06 
35 1 1.52458e-06 4.33e-05 7.67e-05 3.82e-06 
69 2 8.57379e-07 7.83205e-06 8.67879e-05 4.72282e-06 
2 1 1.68612e-06 3.92e-05 9.16e-05 3.76e-06 
48 1 1.71641e-06 4.59e-05 7.88e-05 5.41e-06 
13 1 1.73661e-06 2.52e-05 8.95e-05 5.27e-06 
72 2 9.88112e-07 2.92e-05 7.43e-05 6.64e-06 
39 1 1.82747e-06 4.77e-05 7.72e-05 6.97e-06 
23 1 1.78709e-06 1.22e-05 7.53e-05 7.36e-06 
30 1 1.84767e-06 4.77e-05 9.51e-05 7.42e-06 
79 2 7.69173e-07 7.10726e-06 8.66211e-05 3.1808e-06 
43 1 1.52458e-06 5.64e-05 2.28e-05 2.26e-06 
56 1 1.7467e-06 6.37e-05 1.42e-05 2.7e-06 
73 2 9.20736e-07 5.08e-05 1.33e-05 3.58e-06 
33 1 1.73661e-06 5.85e-05 5.55e-06 5.21e-06 
6 1 1.90825e-06 8.04e-05 1.89e-05 5.09e-06 
38 1 1.88805e-06 9.36e-05 7.62e-06 5.67e-06 
41 1 1.90825e-06 9.33e-05 1.69e-05 5.87e-06 
17 1 1.57506e-06 7.09e-05 1.27e-05 6.14e-06 
47 1 1.77699e-06 5.48e-05 1.75e-05 6.23e-06 
58 1 1.60535e-06 8.74e-05 3.55e-06 6.66e-06 
10 1 1.50438e-06 9.31e-05 2.39e-05 7.43e-06 
66 2 1.01749e-06 5.32e-05 4.86e-05 2.45e-06 
11 1 1.77699e-06 5.75e-05 3.85e-05 3.3e-06 
45 1 1.44381e-06 7.28e-05 4.97e-05 5.42e-06 
36 1 1.59525e-06 8.86e-05 2.59e-05 8.09e-06 
68 2 9.2863e-07 7.43e-05 7.37e-05 1.34e-06 
55 1 1.95873e-06 5.25e-05 5.34e-05 2.88e-06 
25 1 1.60535e-06 9.28e-05 5.4e-05 2.63e-06 
5 1 1.4539e-06 7.44e-05 7.17e-05 3.78e-06 
74 2 9.0094e-07 7.92e-05 7.03e-05 4.34e-06 
4 1 1.54477e-06 7.66e-05 5.65e-05 4.87e-06 
9 1 1.67603e-06 8.77e-05 5.04e-05 5.94e-06 
76 2 1.01745e-06 7.58e-05 5.75e-05 5.65e-06 
52 1 1.51448e-06 7.99e-05 6.68e-05 7.17e-06 
21 1 1.39332e-06 5.07e-05 7.58e-05 1.57e-06 
29 1 1.77699e-06 7.46e-05 8.55e-05 1.81e-06 
65 2 9.51354e-07 9.75e-05 8.78e-05 3e-06 
28 1 1.92844e-06 8.26e-05 8.91e-05 4.78e-06 
8 1 1.52458e-06 7.18e-05 9.4e-05 4.54e-06 
53 1 1.85776e-06 7.12e-05 9.01e-05 5.73e-06 
63 2 9.97772e-07 8.64e-05 7.81e-05 6.42e-06 
27 1 1.78709e-06 7.57e-05 9.45e-05 7.21e-06 
70 2 9.219e-07 5.4e-05 9.56e-05 7.11e-06 
16 1 1.54477e-06 9.16e-05 8.36e-05 7.79e-06 
71 2 1.00766e-06 9.27e-05 8.46e-05 8.37e-06 
31 1 1.79718e-06 6.41e-05 8.94e-05 8.17e-06 
ITEM: TIMESTEP
300
ITEM: NUMBER OF ATOMS
79
ITEM: BOX BOUNDS ff ff ff
0.0000000000000000e+00 1.0000000000000000e-04
0.0000000000000000e+00 1.0000000000000000e-04
0.0000000000000000e+00 1.0000000000000001e-05
ITEM: ATOMS id type diameter x y z 
75 2 8.77796e-07 1.97e-05 2.34e-05 9.4e-07 
50 1 1.66381e-06 1.31e-05 1.63e-05 2.14e-06 
19 1 1.70439e-06 4.95e-06 8.13e-06 2.68e-06 
59 1 1.81598e-06 4.1e-05 1.55e-05 3.31e-06 
42 1 1.4609e-06 1.72e-05 5.7e-06 6.17e-06 
49 1 1.67395e-06 3.18e-05 8.68e-06 6.18e-06 
15 1 1.72468e-06 1.77e-06 1.01e-05 6.62e-06 
22 1 1.41018e-06 1.46e-05 8.93e-06 7.44e-06 
44 1 1.54206e-06 2.56e-05 1.68e-05 7.36e-06 
3 1 1.49134e-06 4.64e-05 1.16e-05 7.95e-06 
40 1 1.86671e-06 1.42e-05 3.95e-05 1.97e-06 
1 1 1.73482e-06 2.94e-05 4.02e-05 4.27e-06 
78 2 9.33569e-07 4.56e-05 4.11e-05 4.7e-06 
24 1 1.60294e-06 3.93e-05 3.84e-05 5.37e-06 
7 1 1.53192e-06 1.75e-05 4.06e-05 5.61e-06 
54 1 1.72468e-06 3.14e-05 4.93e-05 5.55e-06 
62 2 1.0028e-06 5.02e-06 3.31e-05 7.17e-06 
20 1 1.91744e-06 5.12e-06 2.95e-05 7.96e-06 
61 2 1.01228e-06 3.7e-05 4.02e-05 8.16e-06 
77 2 9.5657e-07 3.66e-05 7.01e-05 2.22e-06 
32 1 1.91744e-06 3.53e-05 7.18e-05 2.81e-06 
51 1 1.93773e-06 4.02e-06 5.73e-05 4.01e-06 
60 1 1.6841e-06 1.57e-05 6.75e-05 4.49e-06 
67 2 1.00324e-06 4.38e-06 7.33e-05 5.24e-06 
18 1 1.55221e-06 9.67e-06 5.41e-05 5.9e-06 
26 1 1.87686e-06 2.34e-05 6.47e-05 6.31e-06 
57 1 1.93773e-06 9.55e-06 6.79e-05 6.24e-06 
12 1 1.61308e-06 5.13e-06 7.05e-05 7e-06 
14 1 1.90729e-06 6.98e-06 6.3e-05 7.25e-06 
64 2 9.93001e-07 4.93e-05 8.44e-05 1.23e-06 
34 1 1.78555e-06 8.86e-06 8.4e-05 2.7e-06 
37 1 1.91744e-06 3.88e-05 8.46e-05 2.5e-06 
46 1 1.89715e-06 5.55e-06 7.95e-05 3.14e-06 
35 1 1.53192e-06 4.33e-05 7.67e-05 3.82e-06 
69 2 8.5315e-07 7.83205e-06 8.67879e-05 4.72282e-06 
2 1 1.69424e-06 3.92e-05 9.16e-05 3.76e-06 
48 1 1.72468e-06 4.59e-05 7.88e-05 5.41e-06 
13 1 1.74497e-06 2.52e-05 8.95e-05 5.27e-06 
72 2 9.83236e-07 2.92e-05 7.43e-05 6.64e-06 
39 1 1.83627e-06 4.77e-05 7.72e-05 6.97e-06 
23 1 1.79569e-06 1.22e-05 7.53e-05 7.36e-06 
30 1 1.85656e-06 4.77e-05 9.51e-05 7.42e-06 
79 2 7.65379e-07 7.10726e-06 8.66211e-05 3.1808e-06 
43 1 1.53192e-06 5.64e-05 2.28e-05 2.26e-06 
56 1 1.75511e-06 6.37e-05 1.42e-05 2.7e-06 
73 2 9.15996e-07 5.08e-05 1.33e-05 3.58e-06 
33 1 1.74497e-06 5.85e-05 5.55e-06 5.21e-06 
6 1 1.91744e-06 8.04e-05 1.89e-05 5.09e-06 
38 1 1.89715e-06 9.36e-05 7.62e-06 5.67e-06 
41 1 1.91744e-06 9.33e-05 1.69e-05 5.87e-06 
17 1 1.58265e-06 7.09e-05 1.27e-05 6.14e-06 
47 1 1.78555e-06 5.48e-05 1.75e-05 6.23e-06 
58 1 1.61308e-06 8.74e-05 3.55e-06 6.66e-06 
10 1 1.51163e-06 9.31e-05 2.39e-05 7.43e-06 
66 2 1.01214e-06 5.32e-05 4.86e-05 2.45e-06 
11 1 1.78555e-06 5.75e-05 3.85e-05 3.3e-06 
45 1 1.45076e-06 7.28e-05 4.97e-05 5.42e-06 
36 1 1.60294e-06 8.86e-05 2.59e-05 8.09e-06 
68 2 9.23832e-07 7.43e-05 7.37e-05 1.34e-06 
55 1 1.96816e-06 5.25e-05 5.34e-05 2.88e-06 
25 1 1.61308e-06 9.28e-05 5.4e-05 2.63e-06 
5 1 1.4609e-06 7.44e-05 7.17e-05 3.78e-06 
74 2 8.9625e-07 7.92e-05 7.03e-05 4.34e-06 
4 1 1.55221e-06 7.66e-05 5.65e-05 4.87e-06 
9 1 1.6841e-06 8.77e-05 5.04e-05 5.94e-06 
76 2 1.01206e-06 7.58e-05 5.75e-05 5.65e-06 
52 1 1.52177e-06 7.99e-05 6.68e-05 7.17e-06 
21 1 1.40003e-06 5.07e-05 7.58e-05 1.57e-06 
29 1 1.78555e-06 7.46e-05 8.55e-05 1.81e-06 
65 2 9.46422e-07 9.75e-05 8.78e-05 3e-06 
28 1 1.93773e-06 8.26e-05 8.91e-05 4.78e-06 
8 1 1.53192e-06 7.18e-05 9.4e-05 4.54e-06 
53 1 1.86671e-06 7.12e-05 9.01e-05 5.73e-06 
63 2 9.926e-07 8.64e-05 7.81e-05 6.42e-06 
27 1 1.79569e-06 7.57e-05 9.45e-05 7.21e-06 
70 2 9.17367e-07 5.4e-05 9.56e-05 7.11e-06 
16 1 1.55221e-06 9.16e-05 8.36e-05 7.79e-06 
71 2 1.00245e-06 9.27e-05 8.46e-05 8.37e-06 
31 1 1.80584e-06 6.41e-05 8.94e-05 8.17e-06 
ITEM: TIMESTEP
400
ITEM: NUMBER OF ATOMS
80
ITEM: BOX BOUNDS ff ff ff
0.0000000000000000e+00 1.0000000000000000e-04
0.0000000000000000e+00 1.0000000000000000e-04
0.0000000000000000e+00 1.0000000000000001e-05
ITEM: ATOMS id type diameter x y z 
75 2 8.73874e-07 1.97e-05 2.34e-05 9.4e-07 
50 1 1.67182e-06 1.31e-05 1.63e-05 2.14e-06 
19 1 1.71259e-06 4.95e-06 8.13e-06 2.68e-06 
59 1 1.82473e-06 4.1e-05 1.55e-05 3.31e-06 
42 1 1.46794e-06 1.72e-05 5.7e-06 6.17e-06 
49 1 1.68201e-06 3.18e-05 8.68e-06 6.18e-06 
15 1 1.73298e-06 1.77e-06 1.01e-05 6.62e-06 
22 1 1.41697e-06 1.46e-05 8.93e-06 7.44e-06 
44 1 1.54949e-06 2.56e-05 1.68e-05 7.36e-06 
3 1 1.49852e-06 4.64e-05 1.16e-05 7.95e-06 
40 1 1.8757e-06 1.42e-05 3.95e-05 1.97e-06 
1 1 1.74318e-06 2.94e-05 4.02e-05 4.27e-06 
78 2 9.29248e-07 4.56e-05 4.11e-05 4.7e-06 
24 1 1.61065e-06 3.93e-05 3.84e-05 5.37e-06 
7 1 1.5393e-06 1.75e-05 4.06e-05 5.61e-06 
54 1 1.73298e-06 3.14e-05 4.93e-05 5.55e-06 
62 2 9.98416e-07 5.02e-06 3.31e-05 7.17e-06 
20 1 1.92667e-06 5.12e-06 2.95e-05 7.96e-06 
61 2 1.00763e-06 3.7e-05 4.02e-05 8.16e-06 
77 2 9.52388e-07 3.66e-05 7.01e-05 2.22e-06 
32 1 1.92667e-06 3.53e-05 7.18e-05 2.81e-06 
51 1 1.94706e-06 4.02e-06 5.73e-05 4.01e-06 
60 1 1.69221e-06 1.57e-05 6.75e-05 4.49e-06 
67 2 9.99201e-07 4.38e-06 7.33e-05 5.24e-06 
18 1 1.55968e-06 9.67e-06 5.41e-05 5.9e-06 
26 1 1.88589e-06 2.34e-05 6.47e-05 6.31e-06 
57 1 1.94706e-06 9.55e-06 6.79e-05 6.24e-06 
12 1 1.62085e-06 5.13e-06 7.05e-05 7e-06 
14 1 1.91648e-06 6.98e-06 6.3e-05 7.25e-06 
64 2 9.88711e-07 4.93e-05 8.44e-05 1.23e-06 
34 1 1.79415e-06 8.86e-06 8.4e-05 2.7e-06 
37 1 1.92667e-06 3.88e-05 8.46e-05 2.5e-06 
46 1 1.90628e-06 5.55e-06 7.95e-05 3.14e-06 
35 1 1.5393e-06 4.33e-05 7.67e-05 3.82e-06 
69 2 8.49465e-07 7.83205e-06 8.67879e-05 4.72282e-06 
2 1 1.7024e-06 3.92e-05 9.16e-05 3.76e-06 
48 1 1.73298e-06 4.59e-05 7.88e-05 5.41e-06 
13 1 1.75337e-06 2.52e-05 8.95e-05 5.27e-06 
72 2 9.7901e-07 2.92e-05 7.43e-05 6.64e-06 
39 1 1.84512e-06 4.77e-05 7.72e-05 6.97e-06 
23 1 1.80434e-06 1.22e-05 7.53e-05 7.36e-06 
30 1 1.86551e-06 4.77e-05 9.51e-05 7.42e-06 
79 2 7.62073e-07 7.10726e-06 8.66211e-05 3.1808e-06 
43 1 1.5393e-06 5.64e-05 2.28e-05 2.26e-06 
56 1 1.76356e-06 6.37e-05 1.42e-05 2.7e-06 
73 2 9.11861e-07 5.08e-05 1.33e-05 3.58e-06 
33 1 1.75337e-06 5.85e-05 5.55e-06 5.21e-06 
6 1 1.92667e-06 8.04e-05 1.89e-05 5.09e-06 
38 1 1.90628e-06 9.36e-05 7.62e-06 5.67e-06 
41 1 1.92667e-06 9.33e-05 1.69e-05 5.87e-06 
17 1 1.59027e-06 7.09e-05 1.27e-05 6.14e-06 
47 1 1.79415e-06 5.48e-05 1.75e-05 6.23e-06 
58 1 1.62085e-06 8.74e-05 3.55e-06 6.66e-06 
10 1 1.51891e-06 9.31e-05 2.39e-05 7.43e-06 
66 2 1.00743e-06 5.32e-05 4.86e-05 2.45e-06 
11 1 1.79415e-06 5.75e-05 3.85e-05 3.3e-06 
45 1 1.45774e-06 7.28e-05 4.97e-05 5.42e-06 
36 1 1.61065e-06 8.86e-05 2.59e-05 8.09e-06 
68 2 9.19634e-07 7.43e-05 7.37e-05 1.34e-06 
55 1 1.49001e-06 5.22698e-05 5.33895e-05 2.17138e-06 
25 1 1.62085e-06 9.28e-05 5.4e-05 2.63e-06 
5 1 1.46794e-06 7.44e-05 7.17e-05 3.78e-06 
74 2 8.92137e-07 7.92e-05 7.03e-05 4.34e-06 
4 1 1.55968e-06 7.66e-05 5.65e-05 4.87e-06 
9 1 1.69221e-06 8.77e-05 5.04e-05 5.94e-06 
76 2 1.00733e-06 7.58e-05 5.75e-05 5.65e-06 
52 1 1.5291e-06 7.99e-05 6.68e-05 7.17e-06 
80 1 1.64195e-06 5.27536e-05 5.34115e-05 3.66088e-06 
21 1 1.40677e-06 5.07e-05 7.58e-05 1.57e-06 
29 1 1.79415e-06 7.46e-05 8.55e-05 1.81e-06 
65 2 9.42078e-07 9.75e-05 8.78e-05 3e-06 
28 1 1.94706e-06 8.26e-05 8.91e-05 4.78e-06 
8 1 1.5393e-06 7.18e-05 9.4e-05 4.54e-06 
53 1 1.8757e-06 7.12e-05 9.01e-05 5.73e-06 
63 2 9.88065e-07 8.64e-05 7.81e-05 6.42e-06 
27 1 1.80434e-06 7.57e-05 9.45e-05 7.21e-06 
70 2 9.13451e-07 5.4e-05 9.56e-05 7.11e-06 
16 1 1.55968e-06 9.16e-05 8.36e-05 7.79e-06 
71 2 9.97858e-07 9.27e-05 8.46e-05 8.37e-06 
31 1 1.81454e-06 6.41e-05 8.94e-05 8.17e-06 
ITEM: TIMESTEP
500
ITEM: NUMBER OF ATOMS
80
ITEM: BOX BOUNDS ff ff ff
0.0000000000000000e+00 1.0000000000000000e-04
0.0000000000000000e+00 1.0000000000000000e-04
0.0000000000000000e+00 1.0000000000000001e-05
ITEM: ATOMS id type diameter x y z 
75 2 8.70505e-07 1.97e-05 2.34e-05 9.4e-07 
50 1 1.67987e-06 1.31e-05 1.63e-05 2.14e-06 
19 1 1.72084e-06 4.95e-06 8.13e-06 2.68e-06 
59 1 1.83352e-06 4.1e-05 1.55e-05 3.31e-06 
42 1 1.47501e-06 1.72e-05 5.7e-06 6.17e-06 
49 1 1.69011e-06 3.18e-05 8.68e-06 6.18e-06 
15 1 1.74133e-06 1.77e-06 1.01e-05 6.62e-06 
22 1 1.42379e-06 1.46e-05 8.93e-06 7.44e-06 
44 1 1.55695e-06 2.56e-05 1.68e-05 7.36e-06 
3 1 1.50574e-06 4.64e-05 1.16e-05 7.95e-06 
40 1 1.88473e-06 1.42e-05 3.95e-05 1.97e-06 
1 1 1.75157e-06 2.94e-05 4.02e-05 4.27e-06 
78 2 9.25512e-07 4.56e-05 4.11e-05 4.7e-06 
24 1 1.61841e-06 3.93e-05 3.84e-05 5.37e-06 
7 1 1.54671e-06 1.75e-05 4.06e-05 5.61e-06 
54 1 1.74133e-06 3.14e-05 4.93e-05 5.55e-06 
62 2 9.94658e-07 5.02e-06 3.31e-05 7.17e-06 
20 1 1.93595e-06 5.12e-06 2.95e-05 7.96e-06 
61 2 1.00362e-06 3.7e-05 4.02e-05 8.16e-06 
77 2 9.48822e-07 3.66e-05 7.01e-05 2.22e-06 
32 1 1.93595e-06 3.53e-05 7.18e-05 2.81e-06 
51 1 1.95643e-06 4.02e-06 5.73e-05 4.01e-06 
60 1 1.70036e-06 1.57e-05 6.75e-05 4.49e-06 
67 2 9.95874e-07 4.38e-06 7.33e-05 5.24e-06 
18 1 1.5672e-06 9.67e-06 5.41e-05 5.9e-06 
26 1 1.89497e-06 2.34e-05 6.47e-05 6.31e-06 
57 1 1.95643e-06 9.55e-06 6.79e-05 6.24e-06 
12 1 1.62865e-06 5.13e-06 7.05e-05 7e-06 
14 1 1.9257e-06 6.98e-06 6.3e-05 7.25e-06 
64 2 9.8507e-07 4.93e-05 8.44e-05 1.23e-06 
34 1 1.80279e-06 8.86e-06 8.4e-05 2.7e-06 
37 1 1.93595e-06 3.88e-05 8.46e-05 2.5e-06 
46 1 1.91546e-06 5.55e-06 7.95e-05 3.14e-06 
35 1 1.54671e-06 4.33e-05 7.67e-05 3.82e-06 
69 2 8.46315e-07 7.83205e-06 8.67879e-05 4.72282e-06 
2 1 1.7106e-06 3.92e-05 9.16e-05 3.76e-06 
48 1 1.74133e-06 4.59e-05 7.88e-05 5.41e-06 
13 1 1.76181e-06 2.52e-05 8.95e-05 5.27e-06 
72 2 9.75416e-07 2.92e-05 7.43e-05 6.64e-06 
39 1 1.854e-06 4.77e-05 7.72e-05 6.97e-06 
23 1 1.81303e-06 1.22e-05 7.53e-05 7.36e-06 
30 1 1.87449e-06 4.77e-05 9.51e-05 7.42e-06 
79 2 7.59247e-07 7.10726e-06 8.66211e-05 3.1808e-06 
43 1 1.54671e-06 5.64e-05 2.28e-05 2.26e-06 
56 1 1.77206e-06 6.37e-05 1.42e-05 2.7e-06 
73 2 9.08322e-07 5.08e-05 1.33e-05 3.58e-06 
33 1 1.76181e-06 5.85e-05 5.55e-06 5.21e-06 
6 1 1.93595e-06 8.04e-05 1.89e-05 5.09e-06 
38 1 1.91546e-06 9.36e-05 7.62e-06 5.67e-06 
41 1 1.93595e-06 9.33e-05 1.69e-05 5.87e-06 
17 1 1.59792e-06 7.09e-05 1.27e-05 6.14e-06 
47 1 1.80279e-06 5.48e-05 1.75e-05 6.23e-06 
58 1 1.62865e-06 8.74e-05 3.55e-06 6.66e-06 
10 1 1.52622e-06 9.31e-05 2.39e-05 7.43e-06 
66 2 1.00336e-06 5.32e-05 4.86e-05 2.45e-06 
11 1 1.80279e-06 5.75e-05 3.85e-05 3.3e-06 
45 1 1.46476e-06 7.28e-05 4.97e-05 5.42e-06 
36 1 1.61841e-06 8.86e-05 2.59e-05 8.09e-06 
68 2 9.16023e-07 7.43e-05 7.37e-05 1.34e-06 
55 1 1.49718e-06 5.22698e-05 5.33895e-05 2.17138e-06 
25 1 1.62865e-06 9.28e-05 5.4e-05 2.63e-06 
5 1 1.47501e-06 7.44e-05 7.17e-05 3.78e-06 
74 2 8.88591e-07 7.92e-05 7.03e-05 4.34e-06 
4 1 1.5672e-06 7.66e-05 5.65e-05 4.87e-06 
9 1 1.70036e-06 8.77e-05 5.04e-05 5.94e-06 
76 2 1.00323e-06 7.58e-05 5.75e-05 5.65e-06 
52 1 1.53647e-06 7.99e-05 6.68e-05 7.17e-06 
80 1 1.64985e-06 5.27536e-05 5.34115e-05 3.66088e-06 
21 1 1.41355e-06 5.07e-05 7.58e-05 1.57e-06 
29 1 1.80279e-06 7.46e-05 8.55e-05 1.81e-06 
65 2 9.38312e-07 9.75e-05 8.78e-05 3e-06 
28 1 1.95643e-06 8.26e-05 8.91e-05 4.78e-06 
8 1 1.54671e-06 7.18e-05 9.4e-05 4.54e-06 
53 1 1.88473e-06 7.12e-05 9.01e-05 5.73e-06 
63 2 9.84157e-07 8.64e-05 7.81e-05 6.42e-06 
27 1 1.81303e-06 7.57e-05 9.45e-05 7.21e-06 
70 2 9.10129e-07 5.4e-05 9.56e-05 7.11e-06 
16 1 1.5672e-06 9.16e-05 8.36e-05 7.79e-06 
71 2 9.93891e-07 9.27e-05 8.46e-05 8.37e-06 
31 1 1.82327e-06 6.41e-05 8.94e-05 8.17e-06 
ITEM: TIMESTEP
600
ITEM: NUMBER OF ATOMS
80
ITEM: BOX BOUNDS ff ff ff
0.0000000000000000e+00 1.0000000000000000e-04
0.0000000000000000e+00 1.0000000000000000e-04
0.0000000000000000e+00 1.0000000000000001e-05
ITEM: ATOMS id type diameter x y z 
75 2 8.67678e-07 1.97e-05 2.34e-05 9.4e-07 
50 1 1.68796e-06 1.31e-05 1.63e-05 2.14e-06 
19 1 1.72913e-06 4.95e-06 8.13e-06 2.68e-06 
59 1 1.84235e-06 4.1e-05 1.55e-05 3.31e-06 
42 1 1.48211e-06 1.72e-05 5.7e-06 6.17e-06 
49 1 1.69825e-06 3.18e-05 8.68e-06 6.18e-06 
15 1 1.74971e-06 1.77e-06 1.01e-05 6.62e-06 
22 1 1.43065e-06 1.46e-05 8.93e-06 7.44e-06 
44 1 1.56445e-06 2.56e-05 1.68e-05 7.36e-06 
3 1 1.51299e-06 4.64e-05 1.16e-05 7.95e-06 
40 1 1.89381e-06 1.42e-05 3.95e-05 1.97e-06 
1 1 1.76001e-06 2.94e-05 4.02e-05 4.27e-06 
78 2 9.22354e-07 4.56e-05 4.11e-05 4.7e-06 
24 1 1.6262e-06 3.93e-05 3.84e-05 5.37e-06 
7 1 1.55416e-06 1.75e-05 4.06e-05 5.61e-06 
54 1 1.74971e-06 3.14e-05 4.93e-05 5.55e-06 
62 2 9.9152e-07 5.02e-06 3.31e-05 7.17e-06 
20 1 1.94527e-06 5.12e-06 2.95e-05 7.96e-06 
61 2 1.00024e-06 3.7e-05 4.02e-05 8.16e-06 
77 2 9.45861e-07 3.66e-05 7.01e-05 2.22e-06 
32 1 1.94527e-06 3.53e-05 7.18e-05 2.81e-06 
51 1 1.96585e-06 4.02e-06 5.73e-05 4.01e-06 
60 1 1.70854e-06 1.57e-05 6.75e-05 4.49e-06 
67 2 9.93241e-07 4.38e-06 7.33e-05 5.24e-06 
18 1 1.57474e-06 9.67e-06 5.41e-05 5.9e-06 
26 1 1.9041e-06 2.34e-05 6.47e-05 6.31e-06 
57 1 1.96585e-06 9.55e-06 6.79e-05 6.24e-06 
12 1 1.6365e-06 5.13e-06 7.05e-05 7e-06 
14 1 1.93498e-06 6.98e-06 6.3e-05 7.25e-06 
64 2 9.82066e-07 4.93e-05 8.44e-05 1.23e-06 
34 1 1.81147e-06 8.86e-06 8.4e-05 2.7e-06 
37 1 1.94527e-06 3.88e-05 8.46e-05 2.5e-06 
46 1 1.92468e-06 5.55e-06 7.95e-05 3.14e-06 
35 1 1.55416e-06 4.33e-05 7.67e-05 3.82e-06 
69 2 8.43692e-07 7.83205e-06 8.67879e-05 4.72282e-06 
2 1 1.71884e-06 3.92e-05 9.16e-05 3.76e-06 
48 1 1.74971e-06 4.59e-05 7.88e-05 5.41e-06 
13 1 1.7703e-06 2.52e-05 8.95e-05 5.27e-06 
72 2 9.72442e-07 2.92e-05 7.43e-05 6.64e-06 
39 1 1.86293e-06 4.77e-05 7.72e-05 6.97e-06 
23 1 1.82176e-06 1.22e-05 7.53e-05 7.36e-06 
30 1 1.88352e-06 4.77e-05 9.51e-05 7.42e-06 
79 2 7.56894e-07 7.10726e-06 8.66211e-05 3.1808e-06 
43 1 1.55416e-06 5.64e-05 2.28e-05 2.26e-06 
56 1 1.78059e-06 6.37e-05 1.42e-05 2.7e-06 
73 2 9.0537e-07 5.08e-05 1.33e-05 3.58e-06 
33 1 1.7703e-06 5.85e-05 5.55e-06 5.21e-06 
6 1 1.94527e-06 8.04e-05 1.89e-05 5.09e-06 
38 1 1.92468e-06 9.36e-05 7.62e-06 5.67e-06 
41 1 1.94527e-06 9.33e-05 1.69e-05 5.87e-06 
17 1 1.60562e-06 7.09e-05 1.27e-05 6.14e-06 
47 1 1.81147e-06 5.48e-05 1.75e-05 6.23e-06 
58 1 1.6365e-06 8.74e-05 3.55e-06 6.66e-06 
10 1 1.53357e-06 9.31e-05 2.39e-05 7.43e-06 
66 2 9.99911e-07 5.32e-05 4.86e-05 2.45e-06 
11 1 1.81147e-06 5.75e-05 3.85e-05 3.3e-06 
45 1 1.47182e-06 7.28e-05 4.97e-05 5.42e-06 
36 1 1.6262e-06 8.86e-05 2.59e-05 8.09e-06 
68 2 9.1299e-07 7.43e-05 7.37e-05 1.34e-06 
55 1 1.50439e-06 5.22698e-05 5.33895e-05 2.17138e-06 
25 1 1.6365e-06 9.28e-05 5.4e-05 2.63e-06 
5 1 1.48211e-06 7.44e-05 7.17e-05 3.78e-06 
74 2 8.85605e-07 7.92e-05 7.03e-05 4.34e-06 
4 1 1.57474e-06 7.66e-05 5.65e-05 4.87e-06 
9 1 1.70854e-06 8.77e-05 5.04e-05 5.94e-06 
76 2 9.99763e-07 7.58e-05 5.75e-05 5.65e-06 
52 1 1.54386e-06 7.99e-05 6.68e-05 7.17e-06 
80 1 1.6578e-06 5.27536e-05 5.34115e-05 3.66088e-06 
21 1 1.42036e-06 5.07e-05 7.58e-05 1.57e-06 
29 1 1.81147e-06 7.46e-05 8.55e-05 1.81e-06 
65 2 9.35115e-07 9.75e-05 8.78e-05 3e-06 
28 1 1.96585e-06 8.26e-05 8.91e-05 4.78e-06 
8 1 1.55416e-06 7.18e-05 9.4e-05 4.54e-06 
53 1 1.89381e-06 7.12e-05 9.01e-05 5.73e-06 
63 2 9.80866e-07 8.64e-05 7.81e-05 6.42e-06 
27 1 1.82176e-06 7.57e-05 9.45e-05 7.21e-06 
70 2 9.07384e-07 5.4e-05 9.56e-05 7.11e-06 
16 1 1.57474e-06 9.16e-05 8.36e-05 7.79e-06 
71 2 9.90535e-07 9.27e-05 8.46e-05 8.37e-06 
31 1 1.83205e-06 6.41e-05 8.94e-05 8.17e-06 
ITEM: TIMESTEP
700
ITEM: NUMBER OF ATOMS
83
ITEM: BOX BOUNDS ff ff ff
0.0000000000000000e+00 1.0000000000000000e-04
0.0000000000000000e+00 1.0000000000000000e-04
0.0000000000000000e+00 1.0000000000000001e-05
ITEM: ATOMS id type diameter x y z 
75 2 8.65388e-07 1.97e-05 2.34e-05 9.4e-07 
50 1 1.69609e-06 1.31e-05 1.63e-05 2.14e-06 
19 1 1.73746e-06 4.95e-06 8.13e-06 2.68e-06 
59 1 1.85122e-06 4.1e-05 1.55e-05 3.31e-06 
42 1 1.48925e-06 1.72e-05 5.7e-06 6.17e-06 
49 1 1.70643e-06 3.18e-05 8.68e-06 6.18e-06 
15 1 1.75814e-06 1.77e-06 1.01e-05 6.62e-06 
22 1 1.43754e-06 1.46e-05 8.93e-06 7.44e-06 
44 1 1.57198e-06 2.56e-05 1.68e-05 7.36e-06 
3 1 1.52027e-06 4.64e-05 1.16e-05 7.95e-06 
40 1 1.90293e-06 1.42e-05 3.95e-05 1.97e-06 
1 1 1.76848e-06 2.94e-05 4.02e-05 4.27e-06 
78 2 9.19769e-07 4.56e-05 4.11e-05 4.7e-06 
24 1 1.63404e-06 3.93e-05 3.84e-05 5.37e-06 
7 1 1.56164e-06 1.75e-05 4.06e-05 5.61e-06 
54 1 1.75814e-06 3.14e-05 4.93e-05 5.55e-06 
62 2 9.88992e-07 5.02e-06 3.31e-05 7.17e-06 
20 1 1.95464e-06 5.12e-06 2.95e-05 7.96e-06 
61 2 9.97476e-07 3.7e-05 4.02e-05 8.16e-06 
77 2 9.43498e-07 3.66e-05 7.01e-05 2.22e-06 
32 1 1.95464e-06 3.53e-05 7.18e-05 2.81e-06 
51 1 1.48826e-06 3.7901e-06 5.72896e-05 3.30221e-06 
60 1 1.71677e-06 1.57e-05 6.75e-05 4.49e-06 
67 2 9.91289e-07 4.38e-06 7.33e-05 5.24e-06 
18 1 1.58233e-06 9.67e-06 5.41e-05 5.9e-06 
26 1 1.91327e-06 2.34e-05 6.47e-05 6.31e-06 
57 1 1.50771e-06 9.78307e-06 6.85637e-05 6.51144e-06 
12 1 1.64438e-06 5.13e-06 7.05e-05 7e-06 
14 1 1.9443e-06 6.98e-06 6.3e-05 7.25e-06 
81 1 1.64002e-06 4.27334e-06 5.73115e-05 4.78997e-06 
82 1 1.62363e-06 9.29901e-06 6.71853e-05 5.94769e-06 
64 2 9.79689e-07 4.93e-05 8.44e-05 1.23e-06 
34 1 1.82019e-06 8.86e-06 8.4e-05 2.7e-06 
37 1 1.95464e-06 3.88e-05 8.46e-05 2.5e-06 
46 1 1.93395e-06 5.55e-06 7.95e-05 3.14e-06 
35 1 1.56164e-06 4.33e-05 7.67e-05 3.82e-06 
69 2 8.41595e-07 7.83205e-06 8.67879e-05 4.72282e-06 
2 1 1.72711e-06 3.92e-05 9.16e-05 3.76e-06 
48 1 1.75814e-06 4.59e-05 7.88e-05 5.41e-06 
13 1 1.77882e-06 2.52e-05 8.95e-05 5.27e-06 
72 2 9.70077e-07 2.92e-05 7.43e-05 6.64e-06 
39 1 1.8719e-06 4.77e-05 7.72e-05 6.97e-06 
23 1 1.83053e-06 1.22e-05 7.53e-05 7.36e-06 
30 1 1.89259e-06 4.77e-05 9.51e-05 7.42e-06 
79 2 7.55013e-07 7.10726e-06 8.66211e-05 3.1808e-06 
43 1 1.56164e-06 5.64e-05 2.28e-05 2.26e-06 
56 1 1.78917e-06 6.37e-05 1.42e-05 2.7e-06 
73 2 9.02998e-07 5.08e-05 1.33e-05 3.58e-06 
33 1 1.77882e-06 5.85e-05 5.55e-06 5.21e-06 
6 1 1.95464e-06 8.04e-05 1.89e-05 5.09e-06 
38 1 1.93395e-06 9.36e-05 7.62e-06 5.67e-06 
41 1 1.95464e-06 9.33e-05 1.69e-05 5.87e-06 
17 1 1.61335e-06 7.09e-05 1.27e-05 6.14e-06 
47 1 1.82019e-06 5.48e-05 1.75e-05 6.23e-06 
58 1 1.64438e-06 8.74e-05 3.55e-06 6.66e-06 
10 1 1.54096e-06 9.31e-05 2.39e-05 7.43e-06 
66 2 9.97085e-07 5.32e-05 4.86e-05 2.45e-06 
11 1 1.82019e-06 5.75e-05 3.85e-05 3.3e-06 
45 1 1.47891e-06 7.28e-05 4.97e-05 5.42e-06 
36 1 1.63404e-06 8.86e-05 2.59e-05 8.09e-06 
68 2 9.10524e-07 7.43e-05 7.37e-05 1.34e-06 
55 1 1.51164e-06 5.22698e-05 5.33895e-05 2.17138e-06 
25 1 1.64438e-06 9.28e-05 5.4e-05 2.63e-06 
5 1 1.48925e-06 7.44e-05 7.17e-05 3.78e-06 
74 2 8.8317e-07 7.92e-05 7.03e-05 4.34e-06 
4 1 1.58233e-06 7.66e-05 5.65e-05 4.87e-06 
9 1 1.71677e-06 8.77e-05 5.04e-05 5.94e-06 
76 2 9.96924e-07 7.58e-05 5.75e-05 5.65e-06 
52 1 1.5513e-06 7.99e-05 6.68e-05 7.17e-06 
80 1 1.66578e-06 5.27536e-05 5.34115e-05 3.66088e-06 
21 1 1.4272e-06 5.07e-05 7.58e-05 1.57e-06 
29 1 1.82019e-06 7.46e-05 8.55e-05 1.81e-06 
65 2 9.32479e-07 9.75e-05 8.78e-05 3e-06 
28 1 1.48826e-06 8.23701e-05 8.90896e-05 4.07221e-06 
8 1 1.56164e-06 7.18e-05 9.4e-05 4.54e-06 