ITEM: TIMESTEP
0
ITEM: NUMBER OF ATOMS
116
ITEM: BOX BOUNDS ff ff ff
0.0000000000000000e+00 1.0000000000000000e-04
0.0000000000000000e+00 1.0000000000000000e-04
0.0000000000000000e+00 1.0000000000000001e-05
ITEM: ATOMS id type diameter x y z 
95 2 9.08e-07 2.59e-05 2.02e-05 1.17e-06 
53 2 9.28e-07 2.45e-05 4.04e-06 2.68e-06 
62 2 9.83e-07 4.24e-05 6.11e-06 3.19e-06 
45 2 9.97e-07 2.68e-05 1.62e-05 3.23e-06 
26 1 1.65e-06 3.47e-05 2.74e-06 3.9e-06 
47 2 9.6e-07 3.77e-05 2.31e-05 3.66e-06 
49 2 9.54e-07 2.12e-05 2.01e-05 4.15e-06 
37 2 1.03e-06 3.95e-05 1.11e-05 4.97e-06 
105 2 1.02e-06 4.21e-05 1.42e-05 4.98e-06 
68 2 9.32e-07 2.59e-05 7.58e-06 5.32e-06 
84 2 9.46e-07 4.26e-05 1.01e-05 5.31e-06 
10 1 1.53e-06 3.28e-05 1.93e-06 5.59e-06 
67 2 1.03e-06 2.01e-05 2.37e-05 6.23e-06 
76 2 9.37e-07 3.22e-05 2.32e-05 6.52e-06 
116 2 8.99e-07 6.53e-06 3.59e-06 7.47e-06 
83 2 1.01e-06 1.58e-05 2.09e-05 7.1e-06 
111 2 8.98e-07 2.52e-05 2.88e-06 7.51e-06 
23 1 1.6e-06 3.97e-05 1.53e-05 8.15e-06 
64 2 9.52e-07 3.53e-05 2.71e-05 1.61e-06 
109 2 8.9e-07 4.08e-05 4.56e-05 1.73e-06 
51 2 9.73e-07 7.88e-06 2.59e-05 2.02e-06 
4 1 1.59e-06 4.95e-05 2.59e-05 5.08e-06 
16 1 1.72e-06 2.24e-05 2.66e-05 6.46e-06 
63 2 9.15e-07 1.73e-05 2.61e-05 6.58e-06 
78 2 9.58e-07 3.42e-05 2.96e-05 6.72e-06 
20 1 1.76e-06 2.22e-05 4.29e-05 7.19e-06 
24 1 1.67e-06 3.17e-05 4.33e-05 7.13e-06 
29 2 1.04e-06 1.18e-06 2.92e-05 7.83e-06 
48 2 9.48e-07 2.48e-05 3.6e-05 7.98e-06 
91 2 1.03e-06 4.1e-05 2.72e-05 8.34e-06 
102 2 1.03e-06 3.77e-05 4.12e-05 8.64e-06 
36 2 8.91e-07 2.83e-05 6.92e-05 1.48e-06 
108 2 1.03e-06 5.81e-06 6.45e-05 1.74e-06 
22 1 1.52e-06 3.08e-05 6.65e-05 2.68e-06 
27 2 9.34e-07 2.02e-05 5.76e-05 4.48e-06 
30 2 9.1e-07 4.53e-05 5.79e-05 5.31e-06 
92 2 8.81e-07 1.74e-05 6.28e-05 6.13e-06 
38 2 9.32e-07 3.38e-05 6.57e-05 7.66e-06 
43 2 9.68e-07 4.48e-05 7.88e-05 1.17e-06 
12 1 1.46e-06 4.84e-05 9.2e-05 1.82e-06 
8 1 1.48e-06 2.24e-05 9.28e-05 1.84e-06 
6 1 1.45e-06 5.2e-06 8.58e-05 2.31e-06 
17 1 1.88e-06 4.45e-05 9.7e-05 2.11e-06 
74 2 9.08e-07 2.31e-05 7.71e-05 2.56e-06 
19 1 1.37e-06 1.86e-05 9.35e-05 3.8e-06 
77 2 9.73e-07 4.97e-05 8.39e-05 4.06e-06 
21 1 1.69e-06 2.94e-05 9.16e-05 4.36e-06 
44 2 9.66e-07 1.56e-05 8.02e-05 5.75e-06 
5 1 1.37e-06 4.34e-05 9.14e-05 6.34e-06 
69 2 9.57e-07 2.58e-05 8.17e-05 6.7e-06 
86 2 9.13e-07 3.42e-05 8.1e-05 7.54e-06 
59 2 9.93e-07 1.63e-05 8.54e-05 8.81e-06 
42 2 8.85e-07 6.99e-05 2.17e-05 1.19e-06 
13 1 1.37e-06 7.24e-05 4.76e-06 1.97e-06 
56 2 8.85e-07 9.18e-05 4.97e-06 2.41e-06 
65 2 1.01e-06 6.52e-05 1.3e-05 2.02e-06 
75 2 1.03e-06 6.39e-05 1.13e-05 2.96e-06 
71 2 9.72e-07 9.63e-05 1.64e-05 2.66e-06 
14 1 1.59e-06 7.82e-05 1.67e-05 3.21e-06 
103 2 8.8e-07 9.43e-05 2.28e-05 3.24e-06 
9 1 1.44e-06 7.29e-05 7.51e-06 3.52e-06 
18 1 1.48e-06 8.88e-05 1.32e-05 3.86e-06 
60 2 9.09e-07 8.02e-05 6.26e-06 4.04e-06 
58 2 1.03e-06 9.45e-05 5.87e-06 4.94e-06 
72 2 9.71e-07 6.07e-05 1.42e-05 4.88e-06 
66 2 9.5e-07 9.8e-05 1.06e-05 5.18e-06 
87 2 1e-06 6.24e-05 1.75e-05 5e-06 
39 2 9.39e-07 5.34e-05 1.93e-05 5.08e-06 
93 2 9.58e-07 9.87e-05 2.02e-05 6.87e-06 
70 2 1.04e-06 5.73e-05 2.16e-05 7.57e-06 
106 2 9.86e-07 6.97e-05 5.64e-06 8.99e-06 
114 2 9.68e-07 9.77e-05 1.35e-05 8.68e-06 
97 2 8.92e-07 6.33e-05 2.15e-05 9.08e-06 
15 1 1.6e-06 5.46e-05 3.21e-05 1.76e-06 
85 2 1.03e-06 5.34e-05 3.54e-05 1.98e-06 
96 2 9.88e-07 7.45e-05 3.93e-05 1.53e-06 
52 2 9.56e-07 9.77e-05 2.41e-05 2.57e-06 
35 2 9.69e-07 6.61e-05 2.6e-05 2.73e-06 
100 2 9.72e-07 7.81e-05 4.08e-05 3.76e-06 
80 2 9.68e-07 5.37e-05 4.84e-05 3.71e-06 
25 1 1.4e-06 9.7e-05 4.08e-05 4.06e-06 
112 2 1.01e-06 5.58e-05 3.09e-05 4.93e-06 
40 2 9.94e-07 6.33e-05 2.79e-05 5.8e-06 
73 2 8.95e-07 7.36e-05 3.18e-05 5.88e-06 
98 2 9.56e-07 6.85e-05 2.66e-05 6.38e-06 
101 2 1.02e-06 7.34e-05 3.88e-05 6.44e-06 
11 1 1.92e-06 6.6e-05 4.32e-05 6.22e-06 
61 2 9.58e-07 7.51e-05 2.83e-05 6.69e-06 
41 2 9.75e-07 8.94e-05 3.55e-05 7.94e-06 
88 2 9.36e-07 8.3e-05 2.8e-05 8.05e-06 
32 2 1.01e-06 5.23e-05 4.25e-05 8.25e-06 
34 2 1.04e-06 9.78e-05 4.52e-05 8.51e-06 
115 2 9.24e-07 8.21e-05 4.61e-05 8.85e-06 
104 2 9.57e-07 8.31e-05 6.93e-05 2e-06 
107 2 9.2e-07 8.41e-05 7.34e-05 2.05e-06 
82 2 1e-06 5.21e-05 5.39e-05 2.92e-06 
50 2 1e-06 6.04e-05 6.74e-05 4.27e-06 
55 2 9.82e-07 7.09e-05 5.87e-05 4.54e-06 
57 2 9.75e-07 9.05e-05 5.7e-05 5.99e-06 
54 2 9.21e-07 9.39e-05 6.58e-05 5.88e-06 
31 2 8.85e-07 9.87e-05 6.93e-05 5.92e-06 
7 1 1.51e-06 7.67e-05 6.11e-05 6.34e-06 
99 2 9.58e-07 5.38e-05 7e-05 6.47e-06 
81 2 9.43e-07 7.51e-05 7.63e-05 1.05e-06 
2 1 1.65e-06 7.44e-05 9.69e-05 2.17e-06 
46 2 9.33e-07 9.26e-05 7.53e-05 2.79e-06 
33 2 9.73e-07 9.74e-05 8.42e-05 3.27e-06 
90 2 9.8e-07 9.4e-05 9.08e-05 3.2e-06 
113 2 1e-06 5.89e-05 7.67e-05 3.99e-06 
28 2 9.89e-07 8.75e-05 9.37e-05 3.74e-06 
94 2 9.5e-07 5.36e-05 7.77e-05 4.09e-06 
3 1 1.74e-06 9.64e-05 8.79e-05 6.01e-06 
110 2 1.03e-06 9.4e-05 9.32e-05 6.92e-06 
1 1 1.76e-06 5.31e-05 9.62e-05 7.67e-06 
89 2 9.48e-07 7.93e-05 9.02e-05 8.5e-06 
79 2 9.45e-07 8.58e-05 8.12e-05 8.72e-06 
ITEM: TIMESTEP
100
ITEM: NUMBER OF ATOMS
119
ITEM: BOX BOUNDS ff ff ff
0.0000000000000000e+00 1.0000000000000000e-04
0.0000000000000000e+00 1.0000000000000000e-04
0.0000000000000000e+00 1.0000000000000001e-05
ITEM: ATOMS id type diameter x y z 
95 2 9.0193e-07 2.59e-05 2.02e-05 1.17e-06 
53 2 9.21797e-07 2.45e-05 4.04e-06 2.68e-06 
62 2 9.76429e-07 4.24e-05 6.11e-06 3.19e-06 
45 2 9.90335e-07 2.68e-05 1.62e-05 3.23e-06 
26 1 1.65759e-06 3.47e-05 2.74e-06 3.9e-06 
47 2 9.53583e-07 3.77e-05 2.31e-05 3.66e-06 
49 2 9.47623e-07 2.12e-05 2.01e-05 4.15e-06 
37 2 1.02311e-06 3.95e-05 1.11e-05 4.97e-06 
105 2 1.01318e-06 4.21e-05 1.42e-05 4.98e-06 
68 2 9.2577e-07 2.59e-05 7.58e-06 5.32e-06 
84 2 9.39676e-07 4.26e-05 1.01e-05 5.31e-06 
10 1 1.53704e-06 3.28e-05 1.93e-06 5.59e-06 
67 2 1.02311e-06 2.01e-05 2.37e-05 6.23e-06 
76 2 9.30736e-07 3.22e-05 2.32e-05 6.52e-06 
116 2 8.9299e-07 6.53e-06 3.59e-06 7.47e-06 
83 2 1.00325e-06 1.58e-05 2.09e-05 7.1e-06 
111 2 8.91997e-07 2.52e-05 2.88e-06 7.51e-06 
23 1 1.60736e-06 3.97e-05 1.53e-05 8.15e-06 
64 2 9.45636e-07 3.53e-05 2.71e-05 1.61e-06 
109 2 8.84051e-07 4.08e-05 4.56e-05 1.73e-06 
51 2 9.66496e-07 7.88e-06 2.59e-05 2.02e-06 
4 1 1.59732e-06 4.95e-05 2.59e-05 5.08e-06 
16 1 1.72792e-06 2.24e-05 2.66e-05 6.46e-06 
63 2 9.08883e-07 1.73e-05 2.61e-05 6.58e-06 
78 2 9.51596e-07 3.42e-05 2.96e-05 6.72e-06 
20 1 1.7681e-06 2.22e-05 4.29e-05 7.19e-06 
24 1 1.67769e-06 3.17e-05 4.33e-05 7.13e-06 
29 2 8.30299e-07 1.34671e-06 2.84491e-05 7.4248e-06 
48 2 9.41663e-07 2.48e-05 3.6e-05 7.98e-06 
91 2 1.02311e-06 4.1e-05 2.72e-05 8.34e-06 
102 2 1.02311e-06 3.77e-05 4.12e-05 8.64e-06 
117 2 8.09293e-07 1.01751e-06 2.99319e-05 8.22495e-06 
36 2 8.85044e-07 2.83e-05 6.92e-05 1.48e-06 
108 2 1.02311e-06 5.81e-06 6.45e-05 1.74e-06 
22 1 1.527e-06 3.08e-05 6.65e-05 2.68e-06 
27 2 9.27756e-07 2.02e-05 5.76e-05 4.48e-06 
30 2 9.03917e-07 4.53e-05 5.79e-05 5.31e-06 
92 2 8.75111e-07 1.74e-05 6.28e-05 6.13e-06 
38 2 9.2577e-07 3.38e-05 6.57e-05 7.66e-06 
43 2 9.61529e-07 4.48e-05 7.88e-05 1.17e-06 
12 1 1.46672e-06 4.84e-05 9.2e-05 1.82e-06 
8 1 1.48681e-06 2.24e-05 9.28e-05 1.84e-06 
6 1 1.45667e-06 5.2e-06 8.58e-05 2.31e-06 
17 1 1.88865e-06 4.45e-05 9.7e-05 2.11e-06 
74 2 9.0193e-07 2.31e-05 7.71e-05 2.56e-06 
19 1 1.37631e-06 1.86e-05 9.35e-05 3.8e-06 
77 2 9.66496e-07 4.97e-05 8.39e-05 4.06e-06 
21 1 1.69778e-06 2.94e-05 9.16e-05 4.36e-06 
44 2 9.59543e-07 1.56e-05 8.02e-05 5.75e-06 
5 1 1.37631e-06 4.34e-05 9.14e-05 6.34e-06 
69 2 9.50603e-07 2.58e-05 8.17e-05 6.7e-06 
86 2 9.06897e-07 3.42e-05 8.1e-05 7.54e-06 
59 2 9.86362e-07 1.63e-05 8.54e-05 8.81e-06 
42 2 8.79084e-07 6.99e-05 2.17e-05 1.19e-06 
13 1 1.37631e-06 7.24e-05 4.76e-06 1.97e-06 
56 2 8.79084e-07 9.18e-05 4.97e-06 2.41e-06 
65 2 1.00325e-06 6.52e-05 1.3e-05 2.02e-06 
75 2 1.02311e-06 6.39e-05 1.13e-05 2.96e-06 
71 2 9.65502e-07 9.63e-05 1.64e-05 2.66e-06 
14 1 1.59732e-06 7.82e-05 1.67e-05 3.21e-06 
103 2 8.74117e-07 9.43e-05 2.28e-05 3.24e-06 
9 1 1.44663e-06 7.29e-05 7.51e-06 3.52e-06 
18 1 1.48681e-06 8.88e-05 1.32e-05 3.86e-06 
60 2 9.02924e-07 8.02e-05 6.26e-06 4.04e-06 
58 2 1.02311e-06 9.45e-05 5.87e-06 4.94e-06 
72 2 9.64509e-07 6.07e-05 1.42e-05 4.88e-06 
66 2 9.43649e-07 9.8e-05 1.06e-05 5.18e-06 
87 2 9.93315e-07 6.24e-05 1.75e-05 5e-06 
39 2 9.32723e-07 5.34e-05 1.93e-05 5.08e-06 
93 2 9.51596e-07 9.87e-05 2.02e-05 6.87e-06 
70 2 8.30299e-07 5.74667e-05 2.08491e-05 7.1648e-06 
106 2 9.79409e-07 6.97e-05 5.64e-06 8.99e-06 
114 2 9.61529e-07 9.77e-05 1.35e-05 8.68e-06 
97 2 8.86037e-07 6.33e-05 2.15e-05 9.08e-06 
118 2 8.09293e-07 5.71375e-05 2.23319e-05 7.96495e-06 
15 1 1.60736e-06 5.46e-05 3.21e-05 1.76e-06 
85 2 1.02311e-06 5.34e-05 3.54e-05 1.98e-06 
96 2 9.81395e-07 7.45e-05 3.93e-05 1.53e-06 
52 2 9.49609e-07 9.77e-05 2.41e-05 2.57e-06 
35 2 9.62523e-07 6.61e-05 2.6e-05 2.73e-06 
100 2 9.65502e-07 7.81e-05 4.08e-05 3.76e-06 
80 2 9.61529e-07 5.37e-05 4.84e-05 3.71e-06 
25 1 1.40644e-06 9.7e-05 4.08e-05 4.06e-06 
112 2 1.00325e-06 5.58e-05 3.09e-05 4.93e-06 
40 2 9.87355e-07 6.33e-05 2.79e-05 5.8e-06 
73 2 8.89017e-07 7.36e-05 3.18e-05 5.88e-06 
98 2 9.49609e-07 6.85e-05 2.66e-05 6.38e-06 
101 2 1.01318e-06 7.34e-05 3.88e-05 6.44e-06 
11 1 1.92884e-06 6.6e-05 4.32e-05 6.22e-06 
61 2 9.51596e-07 7.51e-05 2.83e-05 6.69e-06 
41 2 9.68482e-07 8.94e-05 3.55e-05 7.94e-06 
88 2 9.29743e-07 8.3e-05 2.8e-05 8.05e-06 
32 2 1.00325e-06 5.23e-05 4.25e-05 8.25e-06 
34 2 8.30299e-07 9.79667e-05 4.44491e-05 8.1048e-06 
115 2 9.17823e-07 8.21e-05 4.61e-05 8.85e-06 
119 2 8.09293e-07 9.76375e-05 4.59319e-05 8.90495e-06 
104 2 9.50603e-07 8.31e-05 6.93e-05 2e-06 
107 2 9.1385e-07 8.41e-05 7.34e-05 2.05e-06 
82 2 9.93315e-07 5.21e-05 5.39e-05 2.92e-06 
50 2 9.93315e-07 6.04e-05 6.74e-05 4.27e-06 
55 2 9.75436e-07 7.09e-05 5.87e-05 4.54e-06 
57 2 9.68482e-07 9.05e-05 5.7e-05 5.99e-06 
54 2 9.14843e-07 9.39e-05 6.58e-05 5.88e-06 
31 2 8.79084e-07 9.87e-05 6.93e-05 5.92e-06 
7 1 1.51695e-06 7.67e-05 6.11e-05 6.34e-06 
99 2 9.51596e-07 5.38e-05 7e-05 6.47e-06 
81 2 9.36696e-07 7.51e-05 7.63e-05 1.05e-06 
2 1 1.65759e-06 7.44e-05 9.69e-05 2.17e-06 
46 2 9.26763e-07 9.26e-05 7.53e-05 2.79e-06 
33 2 9.66496e-07 9.74e-05 8.42e-05 3.27e-06 
90 2 9.73449e-07 9.4e-05 9.08e-05 3.2e-06 
113 2 9.93315e-07 5.89e-05 7.67e-05 3.99e-06 
28 2 9.82389e-07 8.75e-05 9.37e-05 3.74e-06 
94 2 9.4365e-07 5.36e-05 7.77e-05 4.09e-06 
3 1 1.74801e-06 9.64e-05 8.79e-05 6.01e-06 
110 2 1.02311e-06 9.4e-05 9.32e-05 6.92e-06 
1 1 1.7681e-06 5.31e-05 9.62e-05 7.67e-06 
89 2 9.41663e-07 7.93e-05 9.02e-05 8.5e-06 
79 2 9.38683e-07 8.58e-05 8.12e-05 8.72e-06 
ITEM: TIMESTEP
200
ITEM: NUMBER OF ATOMS
119
ITEM: BOX BOUNDS ff ff ff
0.0000000000000000e+00 1.0000000000000000e-04
0.0000000000000000e+00 1.0000000000000000e-04
0.0000000000000000e+00 1.0000000000000001e-05
ITEM: ATOMS id type diameter x y z 
95 2 8.96186e-07 2.59e-05 2.02e-05 1.17e-06 
53 2 9.15937e-07 2.45e-05 4.04e-06 2.68e-06 
62 2 9.7027e-07 4.24e-05 6.11e-06 3.19e-06 
45 2 9.84039e-07 2.68e-05 1.62e-05 3.23e-06 
26 1 1.66522e-06 3.47e-05 2.74e-06 3.9e-06 
47 2 9.47538e-07 3.77e-05 2.31e-05 3.66e-06 
49 2 9.41574e-07 2.12e-05 2.01e-05 4.15e-06 
37 2 1.01665e-06 3.95e-05 1.11e-05 4.97e-06 
105 2 1.00678e-06 4.21e-05 1.42e-05 4.98e-06 
68 2 9.19884e-07 2.59e-05 7.58e-06 5.32e-06 
84 2 9.33745e-07 4.26e-05 1.01e-05 5.31e-06 
10 1 1.54412e-06 3.28e-05 1.93e-06 5.59e-06 
67 2 1.01658e-06 2.01e-05 2.37e-05 6.23e-06 
76 2 9.24828e-07 3.22e-05 2.32e-05 6.52e-06 
116 2 8.8726e-07 6.53e-06 3.59e-06 7.47e-06 
83 2 9.96825e-07 1.58e-05 2.09e-05 7.1e-06 
111 2 8.86328e-07 2.52e-05 2.88e-06 7.51e-06 
23 1 1.61476e-06 3.97e-05 1.53e-05 8.15e-06 
64 2 9.39631e-07 3.53e-05 2.71e-05 1.61e-06 
109 2 8.78418e-07 4.08e-05 4.56e-05 1.73e-06 
51 2 9.60286e-07 7.88e-06 2.59e-05 2.02e-06 
4 1 1.60467e-06 4.95e-05 2.59e-05 5.08e-06 
16 1 1.73587e-06 2.24e-05 2.66e-05 6.46e-06 
63 2 9.03065e-07 1.73e-05 2.61e-05 6.58e-06 
78 2 9.4555e-07 3.42e-05 2.96e-05 6.72e-06 
20 1 1.77624e-06 2.22e-05 4.29e-05 7.19e-06 
24 1 1.68541e-06 3.17e-05 4.33e-05 7.13e-06 
29 2 8.24959e-07 1.34671e-06 2.84491e-05 7.4248e-06 
48 2 9.35648e-07 2.48e-05 3.6e-05 7.98e-06 
91 2 1.01663e-06 4.1e-05 2.72e-05 8.34e-06 
102 2 1.0166e-06 3.77e-05 4.12e-05 8.64e-06 
117 2 8.04087e-07 1.01751e-06 2.99319e-05 8.22495e-06 
36 2 8.79435e-07 2.83e-05 6.92e-05 1.48e-06 
108 2 1.01657e-06 5.81e-06 6.45e-05 1.74e-06 
22 1 1.53403e-06 3.08e-05 6.65e-05 2.68e-06 
27 2 9.21825e-07 2.02e-05 5.76e-05 4.48e-06 
30 2 8.98161e-07 4.53e-05 5.79e-05 5.31e-06 
92 2 8.69523e-07 1.74e-05 6.28e-05 6.13e-06 
38 2 9.19892e-07 3.38e-05 6.57e-05 7.66e-06 
43 2 9.55495e-07 4.48e-05 7.88e-05 1.17e-06 
12 1 1.47347e-06 4.84e-05 9.2e-05 1.82e-06 
8 1 1.49366e-06 2.24e-05 9.28e-05 1.84e-06 
6 1 1.46338e-06 5.2e-06 8.58e-05 2.31e-06 
17 1 1.89735e-06 4.45e-05 9.7e-05 2.11e-06 
74 2 8.9624e-07 2.31e-05 7.71e-05 2.56e-06 
19 1 1.38264e-06 1.86e-05 9.35e-05 3.8e-06 
77 2 9.60446e-07 4.97e-05 8.39e-05 4.06e-06 
21 1 1.70559e-06 2.94e-05 9.16e-05 4.36e-06 
44 2 9.53489e-07 1.56e-05 8.02e-05 5.75e-06 
5 1 1.38264e-06 4.34e-05 9.14e-05 6.34e-06 
69 2 9.44629e-07 2.58e-05 8.17e-05 6.7e-06 
86 2 9.01215e-07 3.42e-05 8.1e-05 7.54e-06 
59 2 9.80162e-07 1.63e-05 8.54e-05 8.81e-06 
42 2 8.73504e-07 6.99e-05 2.17e-05 1.19e-06 
13 1 1.38264e-06 7.24e-05 4.76e-06 1.97e-06 
56 2 8.73494e-07 9.18e-05 4.97e-06 2.41e-06 
65 2 9.96902e-07 6.52e-05 1.3e-05 2.02e-06 
75 2 1.01665e-06 6.39e-05 1.13e-05 2.96e-06 
71 2 9.59344e-07 9.63e-05 1.64e-05 2.66e-06 
14 1 1.60467e-06 7.82e-05 1.67e-05 3.21e-06 
103 2 8.68532e-07 9.43e-05 2.28e-05 3.24e-06 
9 1 1.45329e-06 7.29e-05 7.51e-06 3.52e-06 
18 1 1.49366e-06 8.88e-05 1.32e-05 3.86e-06 
60 2 8.97192e-07 8.02e-05 6.26e-06 4.04e-06 
58 2 1.01661e-06 9.45e-05 5.87e-06 4.94e-06 
72 2 9.58411e-07 6.07e-05 1.42e-05 4.88e-06 
66 2 9.3764e-07 9.8e-05 1.06e-05 5.18e-06 
87 2 9.87028e-07 6.24e-05 1.75e-05 5e-06 
39 2 9.26827e-07 5.34e-05 1.93e-05 5.08e-06 
93 2 9.45518e-07 9.87e-05 2.02e-05 6.87e-06 
70 2 8.25044e-07 5.74667e-05 2.08491e-05 7.1648e-06 
106 2 9.73214e-07 6.97e-05 5.64e-06 8.99e-06 
114 2 9.55403e-07 9.77e-05 1.35e-05 8.68e-06 
97 2 8.80422e-07 6.33e-05 2.15e-05 9.08e-06 
118 2 8.04167e-07 5.71375e-05 2.23319e-05 7.96495e-06 
15 1 1.61476e-06 5.46e-05 3.21e-05 1.76e-06 
85 2 1.01661e-06 5.34e-05 3.54e-05 1.98e-06 
96 2 9.75114e-07 7.45e-05 3.93e-05 1.53e-06 
52 2 9.43536e-07 9.77e-05 2.41e-05 2.57e-06 
35 2 9.56408e-07 6.61e-05 2.6e-05 2.73e-06 
100 2 9.59313e-07 7.81e-05 4.08e-05 3.76e-06 
80 2 9.55397e-07 5.37e-05 4.84e-05 3.71e-06 
25 1 1.41292e-06 9.7e-05 4.08e-05 4.06e-06 
112 2 9.96878e-07 5.58e-05 3.09e-05 4.93e-06 
40 2 9.81085e-07 6.33e-05 2.79e-05 5.8e-06 
73 2 8.83347e-07 7.36e-05 3.18e-05 5.88e-06 
98 2 9.43569e-07 6.85e-05 2.66e-05 6.38e-06 
101 2 1.0067e-06 7.34e-05 3.88e-05 6.44e-06 
11 1 1.93772e-06 6.6e-05 4.32e-05 6.22e-06 
61 2 9.45527e-07 7.51e-05 2.83e-05 6.69e-06 
41 2 9.62272e-07 8.94e-05 3.55e-05 7.94e-06 
88 2 9.23805e-07 8.3e-05 2.8e-05 8.05e-06 
32 2 9.96856e-07 5.23e-05 4.25e-05 8.25e-06 
34 2 8.24955e-07 9.79667e-05 4.44491e-05 8.1048e-06 
115 2 9.11925e-07 8.21e-05 4.61e-05 8.85e-06 
119 2 8.04084e-07 9.76375e-05 4.59319e-05 8.90495e-06 
104 2 9.44512e-07 8.31e-05 6.93e-05 2e-06 
107 2 9.08002e-07 8.41e-05 7.34e-05 2.05e-06 
82 2 9.8698e-07 5.21e-05 5.39e-05 2.92e-06 
50 2 9.86994e-07 6.04e-05 6.74e-05 4.27e-06 
55 2 9.69188e-07 7.09e-05 5.87e-05 4.54e-06 
57 2 9.62247e-07 9.05e-05 5.7e-05 5.99e-06 
54 2 9.08962e-07 9.39e-05 6.58e-05 5.88e-06 
31 2 8.73438e-07 9.87e-05 6.93e-05 5.92e-06 
7 1 1.52393e-06 7.67e-05 6.11e-05 6.34e-06 
99 2 9.45564e-07 5.38e-05 7e-05 6.47e-06 
81 2 9.30736e-07 7.51e-05 7.63e-05 1.05e-06 
2 1 1.66522e-06 7.44e-05 9.69e-05 2.17e-06 
46 2 9.20829e-07 9.26e-05 7.53e-05 2.79e-06 
33 2 9.60333e-07 9.74e-05 8.42e-05 3.27e-06 
90 2 9.67259e-07 9.4e-05 9.08e-05 3.2e-06 
113 2 9.87043e-07 5.89e-05 7.67e-05 3.99e-06 
28 2 9.76155e-07 8.75e-05 9.37e-05 3.74e-06 
94 2 9.37705e-07 5.36e-05 7.77e-05 4.09e-06 
3 1 1.75606e-06 9.64e-05 8.79e-05 6.01e-06 
110 2 1.01661e-06 9.4e-05 9.32e-05 6.92e-06 
1 1 1.77624e-06 5.31e-05 9.62e-05 7.67e-06 
89 2 9.35703e-07 7.93e-05 9.02e-05 8.5e-06 
79 2 9.327e-07 8.58e-05 8.12e-05 8.72e-06 
ITEM: TIMESTEP
300
ITEM: NUMBER OF ATOMS
119
ITEM: BOX BOUNDS ff ff ff
0.0000000000000000e+00 1.0000000000000000e-04
0.0000000000000000e+00 1.0000000000000000e-04
0.0000000000000000e+00 1.0000000000000001e-05
ITEM: ATOMS id type diameter x y z 
95 2 8.90784e-07 2.59e-05 2.02e-05 1.17e-06 
53 2 9.10429e-07 2.45e-05 4.04e-06 2.68e-06 
62 2 9.64499e-07 4.24e-05 6.11e-06 3.19e-06 
45 2 9.78123e-07 2.68e-05 1.62e-05 3.23e-06 
26 1 1.67289e-06 3.47e-05 2.74e-06 3.9e-06 
47 2 9.41868e-07 3.77e-05 2.31e-05 3.66e-06 
49 2 9.35877e-07 2.12e-05 2.01e-05 4.15e-06 
37 2 1.01059e-06 3.95e-05 1.11e-05 4.97e-06 
105 2 1.00078e-06 4.21e-05 1.42e-05 4.98e-06 
68 2 9.14352e-07 2.59e-05 7.58e-06 5.32e-06 
84 2 9.28188e-07 4.26e-05 1.01e-05 5.31e-06 
10 1 1.55122e-06 3.28e-05 1.93e-06 5.59e-06 
67 2 1.01043e-06 2.01e-05 2.37e-05 6.23e-06 
76 2 9.19283e-07 3.22e-05 2.32e-05 6.52e-06 
116 2 8.81828e-07 6.53e-06 3.59e-06 7.47e-06 
83 2 9.90759e-07 1.58e-05 2.09e-05 7.1e-06 
111 2 8.80998e-07 2.52e-05 2.88e-06 7.51e-06 
23 1 1.6222e-06 3.97e-05 1.53e-05 8.15e-06 
64 2 9.33994e-07 3.53e-05 2.71e-05 1.61e-06 
109 2 8.73108e-07 4.08e-05 4.56e-05 1.73e-06 
51 2 9.54409e-07 7.88e-06 2.59e-05 2.02e-06 
4 1 1.61206e-06 4.95e-05 2.59e-05 5.08e-06 
16 1 1.74386e-06 2.24e-05 2.66e-05 6.46e-06 
63 2 8.97575e-07 1.73e-05 2.61e-05 6.58e-06 
78 2 9.39872e-07 3.42e-05 2.96e-05 6.72e-06 
20 1 1.78442e-06 2.22e-05 4.29e-05 7.19e-06 
24 1 1.69317e-06 3.17e-05 4.33e-05 7.13e-06 
29 2 8.199e-07 1.34671e-06 2.84491e-05 7.4248e-06 
48 2 9.29984e-07 2.48e-05 3.6e-05 7.98e-06 
91 2 1.01054e-06 4.1e-05 2.72e-05 8.34e-06 
102 2 1.01046e-06 3.77e-05 4.12e-05 8.64e-06 
117 2 7.99157e-07 1.01751e-06 2.99319e-05 8.22495e-06 
36 2 8.74142e-07 2.83e-05 6.92e-05 1.48e-06 
108 2 1.01036e-06 5.81e-06 6.45e-05 1.74e-06 
22 1 1.54109e-06 3.08e-05 6.65e-05 2.68e-06 
27 2 9.16213e-07 2.02e-05 5.76e-05 4.48e-06 
30 2 8.92721e-07 4.53e-05 5.79e-05 5.31e-06 
92 2 8.64232e-07 1.74e-05 6.28e-05 6.13e-06 
38 2 9.14341e-07 3.38e-05 6.57e-05 7.66e-06 
43 2 9.49837e-07 4.48e-05 7.88e-05 1.17e-06 
12 1 1.48025e-06 4.84e-05 9.2e-05 1.82e-06 
8 1 1.50053e-06 2.24e-05 9.28e-05 1.84e-06 
6 1 1.47012e-06 5.2e-06 8.58e-05 2.31e-06 
17 1 1.90608e-06 4.45e-05 9.7e-05 2.11e-06 
74 2 8.90883e-07 2.31e-05 7.71e-05 2.56e-06 
19 1 1.38901e-06 1.86e-05 9.35e-05 3.8e-06 
77 2 9.54787e-07 4.97e-05 8.39e-05 4.06e-06 
21 1 1.71344e-06 2.94e-05 9.16e-05 4.36e-06 
44 2 9.47786e-07 1.56e-05 8.02e-05 5.75e-06 
5 1 1.38901e-06 4.34e-05 9.14e-05 6.34e-06 
69 2 9.39023e-07 2.58e-05 8.17e-05 6.7e-06 
86 2 8.95895e-07 3.42e-05 8.1e-05 7.54e-06 
59 2 9.74337e-07 1.63e-05 8.54e-05 8.81e-06 
42 2 8.68251e-07 6.99e-05 2.17e-05 1.19e-06 
13 1 1.38901e-06 7.24e-05 4.76e-06 1.97e-06 
56 2 8.68227e-07 9.18e-05 4.97e-06 2.41e-06 
65 2 9.90935e-07 6.52e-05 1.3e-05 2.02e-06 
75 2 1.01057e-06 6.39e-05 1.13e-05 2.96e-06 
71 2 9.53535e-07 9.63e-05 1.64e-05 2.66e-06 
14 1 1.61206e-06 7.82e-05 1.67e-05 3.21e-06 
103 2 8.63259e-07 9.43e-05 2.28e-05 3.24e-06 
9 1 1.45998e-06 7.29e-05 7.51e-06 3.52e-06 
18 1 1.50053e-06 8.88e-05 1.32e-05 3.86e-06 
60 2 8.91797e-07 8.02e-05 6.26e-06 4.04e-06 
58 2 1.01047e-06 9.45e-05 5.87e-06 4.94e-06 
72 2 9.52679e-07 6.07e-05 1.42e-05 4.88e-06 
66 2 9.31974e-07 9.8e-05 1.06e-05 5.18e-06 
87 2 9.81117e-07 6.24e-05 1.75e-05 5e-06 
39 2 9.21291e-07 5.34e-05 1.93e-05 5.08e-06 
93 2 9.39782e-07 9.87e-05 2.02e-05 6.87e-06 
70 2 8.20107e-07 5.74667e-05 2.08491e-05 7.1648e-06 
106 2 9.6739e-07 6.97e-05 5.64e-06 8.99e-06 
114 2 9.49626e-07 9.77e-05 1.35e-05 8.68e-06 
97 2 8.75141e-07 6.33e-05 2.15e-05 9.08e-06 
118 2 7.99351e-07 5.71375e-05 2.23319e-05 7.96495e-06 
15 1 1.6222e-06 5.46e-05 3.21e-05 1.76e-06 
85 2 1.01049e-06 5.34e-05 3.54e-05 1.98e-06 
96 2 9.69183e-07 7.45e-05 3.93e-05 1.53e-06 
52 2 9.37801e-07 9.77e-05 2.41e-05 2.57e-06 
35 2 9.50651e-07 6.61e-05 2.6e-05 2.73e-06 
100 2 9.53463e-07 7.81e-05 4.08e-05 3.76e-06 
80 2 9.49605e-07 5.37e-05 4.84e-05 3.71e-06 
25 1 1.41942e-06 9.7e-05 4.08e-05 4.06e-06 
112 2 9.90887e-07 5.58e-05 3.09e-05 4.93e-06 
40 2 9.75184e-07 6.33e-05 2.79e-05 5.8e-06 
73 2 8.78e-07 7.36e-05 3.18e-05 5.88e-06 
98 2 9.37879e-07 6.85e-05 2.66e-05 6.38e-06 
101 2 1.00058e-06 7.34e-05 3.88e-05 6.44e-06 
11 1 1.94664e-06 6.6e-05 4.32e-05 6.22e-06 
61 2 9.39806e-07 7.51e-05 2.83e-05 6.69e-06 
41 2 9.56402e-07 8.94e-05 3.55e-05 7.94e-06 
88 2 9.18203e-07 8.3e-05 2.8e-05 8.05e-06 
32 2 9.90828e-07 5.23e-05 4.25e-05 8.25e-06 
34 2 8.19896e-07 9.79667e-05 4.44491e-05 8.1048e-06 
115 2 9.06344e-07 8.21e-05 4.61e-05 8.85e-06 
119 2 7.99153e-07 9.76375e-05 4.59319e-05 8.90495e-06 
104 2 9.38744e-07 8.31e-05 6.93e-05 2e-06 
107 2 9.02469e-07 8.41e-05 7.34e-05 2.05e-06 
82 2 9.80991e-07 5.21e-05 5.39e-05 2.92e-06 
50 2 9.81014e-07 6.04e-05 6.74e-05 4.27e-06 
55 2 9.6327e-07 7.09e-05 5.87e-05 4.54e-06 
57 2 9.5634e-07 9.05e-05 5.7e-05 5.99e-06 
54 2 9.0339e-07 9.39e-05 6.58e-05 5.88e-06 
31 2 8.68093e-07 9.87e-05 6.93e-05 5.92e-06 
7 1 1.53095e-06 7.67e-05 6.11e-05 6.34e-06 
99 2 9.39867e-07 5.38e-05 7e-05 6.47e-06 
81 2 9.25105e-07 7.51e-05 7.63e-05 1.05e-06 
2 1 1.67289e-06 7.44e-05 9.69e-05 2.17e-06 
46 2 9.15217e-07 9.26e-05 7.53e-05 2.79e-06 
33 2 9.54523e-07 9.74e-05 8.42e-05 3.27e-06 
90 2 9.61431e-07 9.4e-05 9.08e-05 3.2e-06 
113 2 9.81135e-07 5.89e-05 7.67e-05 3.99e-06 
28 2 9.70289e-07 8.75e-05 9.37e-05 3.74e-06 
94 2 9.32115e-07 5.36e-05 7.77e-05 4.09e-06 
3 1 1.76414e-06 9.64e-05 8.79e-05 6.01e-06 
110 2 1.01049e-06 9.4e-05 9.32e-05 6.92e-06 
1 1 1.78442e-06 5.31e-05 9.62e-05 7.67e-06 
89 2 9.30098e-07 7.93e-05 9.02e-05 8.5e-06 
79 2 9.27053e-07 8.58e-05 8.12e-05 8.72e-06 
ITEM: TIMESTEP
400
ITEM: NUMBER OF ATOMS
119
ITEM: BOX BOUNDS ff ff ff
0.0000000000000000e+00 1.0000000000000000e-04
0.0000000000000000e+00 1.0000000000000000e-04
0.0000000000000000e+00 1.0000000000000001e-05
ITEM: ATOMS id type diameter x y z 
95 2 8.85715e-07 2.59e-05 2.02e-05 1.17e-06 
53 2 9.05264e-07 2.45e-05 4.04e-06 2.68e-06 
62 2 9.59098e-07 4.24e-05 6.11e-06 3.19e-06 
45 2 9.72577e-07 2.68e-05 1.62e-05 3.23e-06 
26 1 1.68059e-06 3.47e-05 2.74e-06 3.9e-06 
47 2 9.36557e-07 3.77e-05 2.31e-05 3.66e-06 
49 2 9.30525e-07 2.12e-05 2.01e-05 4.15e-06 
37 2 1.00493e-06 3.95e-05 1.11e-05 4.97e-06 
105 2 9.95166e-07 4.21e-05 1.42e-05 4.98e-06 
68 2 9.09163e-07 2.59e-05 7.58e-06 5.32e-06 
84 2 9.22985e-07 4.26e-05 1.01e-05 5.31e-06 
10 1 1.55837e-06 3.28e-05 1.93e-06 5.59e-06 
67 2 1.00465e-06 2.01e-05 2.37e-05 6.23e-06 
76 2 9.14089e-07 3.22e-05 2.32e-05 6.52e-06 
116 2 8.76694e-07 6.53e-06 3.59e-06 7.47e-06 
83 2 9.85047e-07 1.58e-05 2.09e-05 7.1e-06 
111 2 8.76001e-07 2.52e-05 2.88e-06 7.51e-06 
23 1 1.62966e-06 3.97e-05 1.53e-05 8.15e-06 
64 2 9.28713e-07 3.53e-05 2.71e-05 1.61e-06 
109 2 8.68118e-07 4.08e-05 4.56e-05 1.73e-06 
51 2 9.48861e-07 7.88e-06 2.59e-05 2.02e-06 
4 1 1.61948e-06 4.95e-05 2.59e-05 5.08e-06 
16 1 1.75189e-06 2.24e-05 2.66e-05 6.46e-06 
63 2 8.92411e-07 1.73e-05 2.61e-05 6.58e-06 
78 2 9.34552e-07 3.42e-05 2.96e-05 6.72e-06 
20 1 1.79263e-06 2.22e-05 4.29e-05 7.19e-06 
24 1 1.70096e-06 3.17e-05 4.33e-05 7.13e-06 
29 2 8.15125e-07 1.34671e-06 2.84491e-05 7.4248e-06 
48 2 9.24668e-07 2.48e-05 3.6e-05 7.98e-06 
91 2 1.00483e-06 4.1e-05 2.72e-05 8.34e-06 
102 2 1.0047e-06 3.77e-05 4.12e-05 8.64e-06 
117 2 7.94502e-07 1.01751e-06 2.99319e-05 8.22495e-06 
36 2 8.69157e-07 2.83e-05 6.92e-05 1.48e-06 
108 2 1.0045e-06 5.81e-06 6.45e-05 1.74e-06 
22 1 1.54818e-06 3.08e-05 6.65e-05 2.68e-06 
27 2 9.10922e-07 2.02e-05 5.76e-05 4.48e-06 
30 2 8.8759e-07 4.53e-05 5.79e-05 5.31e-06 
92 2 8.5924e-07 1.74e-05 6.28e-05 6.13e-06 
38 2 9.09109e-07 3.38e-05 6.57e-05 7.66e-06 
43 2 9.44536e-07 4.48e-05 7.88e-05 1.17e-06 
12 1 1.48707e-06 4.84e-05 9.2e-05 1.82e-06 
8 1 1.50744e-06 2.24e-05 9.28e-05 1.84e-06 
6 1 1.47688e-06 5.2e-06 8.58e-05 2.31e-06 
17 1 1.91485e-06 4.45e-05 9.7e-05 2.11e-06 
74 2 8.85848e-07 2.31e-05 7.71e-05 2.56e-06 
19 1 1.3954e-06 1.86e-05 9.35e-05 3.8e-06 
77 2 9.49499e-07 4.97e-05 8.39e-05 4.06e-06 
21 1 1.72133e-06 2.94e-05 9.16e-05 4.36e-06 
44 2 9.42426e-07 1.56e-05 8.02e-05 5.75e-06 
5 1 1.3954e-06 4.34e-05 9.14e-05 6.34e-06 
69 2 9.33767e-07 2.58e-05 8.17e-05 6.7e-06 
86 2 8.90919e-07 3.42e-05 8.1e-05 7.54e-06 
59 2 9.68874e-07 1.63e-05 8.54e-05 8.81e-06 
42 2 8.63316e-07 6.99e-05 2.17e-05 1.19e-06 
13 1 1.3954e-06 7.24e-05 4.76e-06 1.97e-06 
56 2 8.63277e-07 9.18e-05 4.97e-06 2.41e-06 
65 2 9.85331e-07 6.52e-05 1.3e-05 2.02e-06 
75 2 1.00486e-06 6.39e-05 1.13e-05 2.96e-06 
71 2 9.48066e-07 9.63e-05 1.64e-05 2.66e-06 
14 1 1.61948e-06 7.82e-05 1.67e-05 3.21e-06 
103 2 8.58293e-07 9.43e-05 2.28e-05 3.24e-06 
9 1 1.4667e-06 7.29e-05 7.51e-06 3.52e-06 
18 1 1.50744e-06 8.88e-05 1.32e-05 3.86e-06 
60 2 8.86729e-07 8.02e-05 6.26e-06 4.04e-06 
58 2 1.0047e-06 9.45e-05 5.87e-06 4.94e-06 
72 2 9.47298e-07 6.07e-05 1.42e-05 4.88e-06 
66 2 9.26643e-07 9.8e-05 1.06e-05 5.18e-06 
87 2 9.75566e-07 6.24e-05 1.75e-05 5e-06 
39 2 9.16098e-07 5.34e-05 1.93e-05 5.08e-06 
93 2 9.34379e-07 9.87e-05 2.02e-05 6.87e-06 
70 2 8.15472e-07 5.74667e-05 2.08491e-05 7.1648e-06 
106 2 9.61921e-07 6.97e-05 5.64e-06 8.99e-06 
114 2 9.4419e-07 9.77e-05 1.35e-05 8.68e-06 
97 2 8.70181e-07 6.33e-05 2.15e-05 9.08e-06 
118 2 7.94829e-07 5.71375e-05 2.23319e-05 7.96495e-06 
15 1 1.62966e-06 5.46e-05 3.21e-05 1.76e-06 
85 2 1.00474e-06 5.34e-05 3.54e-05 1.98e-06 
96 2 9.63601e-07 7.45e-05 3.93e-05 1.53e-06 
52 2 9.32399e-07 9.77e-05 2.41e-05 2.57e-06 
35 2 9.45242e-07 6.61e-05 2.6e-05 2.73e-06 
100 2 9.47954e-07 7.81e-05 4.08e-05 3.76e-06 
80 2 9.4415e-07 5.37e-05 4.84e-05 3.71e-06 
25 1 1.42596e-06 9.7e-05 4.08e-05 4.06e-06 
112 2 9.85262e-07 5.58e-05 3.09e-05 4.93e-06 
40 2 9.69641e-07 6.33e-05 2.79e-05 5.8e-06 
73 2 8.72972e-07 7.36e-05 3.18e-05 5.88e-06 
98 2 9.32532e-07 6.85e-05 2.66e-05 6.38e-06 
101 2 9.94825e-07 7.34e-05 3.88e-05 6.44e-06 
11 1 1.9556e-06 6.6e-05 4.32e-05 6.22e-06 
61 2 9.34424e-07 7.51e-05 2.83e-05 6.69e-06 
41 2 9.50871e-07 8.94e-05 3.55e-05 7.94e-06 
88 2 9.1293e-07 8.3e-05 2.8e-05 8.05e-06 
32 2 9.8516e-07 5.23e-05 4.25e-05 8.25e-06 
34 2 8.15124e-07 9.79667e-05 4.44491e-05 8.1048e-06 
115 2 9.01083e-07 8.21e-05 4.61e-05 8.85e-06 
119 2 7.94501e-07 9.76375e-05 4.59319e-05 8.90495e-06 
104 2 9.333e-07 8.31e-05 6.93e-05 2e-06 
107 2 8.97249e-07 8.41e-05 7.34e-05 2.05e-06 
82 2 9.75345e-07 5.21e-05 5.39e-05 2.92e-06 
50 2 9.75368e-07 6.04e-05 6.74e-05 4.27e-06 
55 2 9.57685e-07 7.09e-05 5.87e-05 4.54e-06 
57 2 9.50765e-07 9.05e-05 5.7e-05 5.99e-06 
54 2 8.98132e-07 9.39e-05 6.58e-05 5.88e-06 
31 2 8.6305e-07 9.87e-05 6.93e-05 5.92e-06 
7 1 1.53799e-06 7.67e-05 6.11e-05 6.34e-06 
99 2 9.34494e-07 5.38e-05 7e-05 6.47e-06 
81 2 9.19796e-07 7.51e-05 7.63e-05 1.05e-06 
2 1 1.68059e-06 7.44e-05 9.69e-05 2.17e-06 
46 2 9.09928e-07 9.26e-05 7.53e-05 2.79e-06 
33 2 9.49061e-07 9.74e-05 8.42e-05 3.27e-06 
90 2 9.55959e-07 9.4e-05 9.08e-05 3.2e-06 
113 2 9.75577e-07 5.89e-05 7.67e-05 3.99e-06 
28 2 9.64781e-07 8.75e-05 9.37e-05 3.74e-06 
94 2 9.26862e-07 5.36e-05 7.77e-05 4.09e-06 
3 1 1.77226e-06 9.64e-05 8.79e-05 6.01e-06 
110 2 1.00475e-06 9.4e-05 9.32e-05 6.92e-06 
1 1 1.79263e-06 5.31e-05 9.62e-05 7.67e-06 
89 2 9.24835e-07 7.93e-05 9.02e-05 8.5e-06 
79 2 9.21735e-07 8.58e-05 8.12e-05 8.72e-06 
ITEM: TIMESTEP
500
ITEM: NUMBER OF ATOMS
119
ITEM: BOX BOUNDS ff ff ff
0.0000000000000000e+00 1.0000000000000000e-04
0.0000000000000000e+00 1.0000000000000000e-04
0.0000000000000000e+00 1.0000000000000001e-05
ITEM: ATOMS id type diameter x y z 
95 2 8.80971e-07 2.59e-05 2.02e-05 1.17e-06 
53 2 9.00433e-07 2.45e-05 4.04e-06 2.68e-06 
62 2 9.54054e-07 4.24e-05 6.11e-06 3.19e-06 
45 2 9.6739e-07 2.68e-05 1.62e-05 3.23e-06 
26 1 1.68833e-06 3.47e-05 2.74e-06 3.9e-06 
47 2 9.31593e-07 3.77e-05 2.31e-05 3.66e-06 
49 2 9.25508e-07 2.12e-05 2.01e-05 4.15e-06 
37 2 9.99636e-07 3.95e-05 1.11e-05 4.97e-06 
105 2 9.89916e-07 4.21e-05 1.42e-05 4.98e-06 
68 2 9.0431e-07 2.59e-05 7.58e-06 5.32e-06 
84 2 9.18124e-07 4.26e-05 1.01e-05 5.31e-06 
10 1 1.56554e-06 3.28e-05 1.93e-06 5.59e-06 
67 2 9.99231e-07 2.01e-05 2.37e-05 6.23e-06 
76 2 9.09234e-07 3.22e-05 2.32e-05 6.52e-06 
116 2 8.71854e-07 6.53e-06 3.59e-06 7.47e-06 
83 2 9.79682e-07 1.58e-05 2.09e-05 7.1e-06 
111 2 8.71327e-07 2.52e-05 2.88e-06 7.51e-06 
23 1 1.63716e-06 3.97e-05 1.53e-05 8.15e-06 
64 2 9.23775e-07 3.53e-05 2.71e-05 1.61e-06 
109 2 8.6344e-07 4.08e-05 4.56e-05 1.73e-06 
51 2 9.43641e-07 7.88e-06 2.59e-05 2.02e-06 
4 1 1.62693e-06 4.95e-05 2.59e-05 5.08e-06 
16 1 1.75995e-06 2.24e-05 2.66e-05 6.46e-06 
63 2 8.87566e-07 1.73e-05 2.61e-05 6.58e-06 
78 2 9.29577e-07 3.42e-05 2.96e-05 6.72e-06 
20 1 1.80088e-06 2.22e-05 4.29e-05 7.19e-06 
24 1 1.70879e-06 3.17e-05 4.33e-05 7.13e-06 
29 2 8.10629e-07 1.34671e-06 2.84491e-05 7.4248e-06 
48 2 9.19691e-07 2.48e-05 3.6e-05 7.98e-06 
91 2 9.99499e-07 4.1e-05 2.72e-05 8.34e-06 
102 2 9.99306e-07 3.77e-05 4.12e-05 8.64e-06 
117 2 7.9012e-07 1.01751e-06 2.99319e-05 8.22495e-06 
36 2 8.64473e-07 2.83e-05 6.92e-05 1.48e-06 
108 2 9.98974e-07 5.81e-06 6.45e-05 1.74e-06 
22 1 1.55531e-06 3.08e-05 6.65e-05 2.68e-06 
27 2 9.05951e-07 2.02e-05 5.76e-05 4.48e-06 
30 2 8.82765e-07 4.53e-05 5.79e-05 5.31e-06 
92 2 8.54544e-07 1.74e-05 6.28e-05 6.13e-06 
38 2 9.04191e-07 3.38e-05 6.57e-05 7.66e-06 
43 2 9.39578e-07 4.48e-05 7.88e-05 1.17e-06 
12 1 1.49391e-06 4.84e-05 9.2e-05 1.82e-06 
8 1 1.51438e-06 2.24e-05 9.28e-05 1.84e-06 
6 1 1.48368e-06 5.2e-06 8.58e-05 2.31e-06 
17 1 1.92367e-06 4.45e-05 9.7e-05 2.11e-06 
74 2 8.81127e-07 2.31e-05 7.71e-05 2.56e-06 
19 1 1.40182e-06 1.86e-05 9.35e-05 3.8e-06 
77 2 9.44566e-07 4.97e-05 8.39e-05 4.06e-06 
21 1 1.72925e-06 2.94e-05 9.16e-05 4.36e-06 
44 2 9.37399e-07 1.56e-05 8.02e-05 5.75e-06 